 &FCI NORB=20 ,NELEC=20 ,MS2=0,
  ORBSYM=1,1,1,1,1,1,1,1,1,1,1,1,1,1,1,1,1,1,1,1,
  ISYM=1,
 &END
  8.662547908229e-01    1  1  1  1
  1.362836062070e-05    2  1  1  1
  1.813545668186e-09    2  1  2  1
  7.567594060865e-02    2  2  1  1
  1.362675853394e-05    2  2  2  1
  8.662624972401e-01    2  2  2  2
  1.362669875441e-05    3  1  1  1
  1.273369051155e-10    3  1  2  1
  2.529340020239e-07    3  1  2  2
  1.813350581085e-09    3  1  3  1
 -2.922877300103e-10    3  2  1  1
  2.549551482522e-09    3  2  2  2
  7.567560441283e-02    3  3  1  1
  2.529819815671e-07    3  3  2  1
  3.786802757377e-02    3  3  2  2
  1.362681840051e-05    3  3  3  1
  2.557820734577e-09    3  3  3  2
  8.662482500056e-01    3  3  3  3
 -9.017191735172e-04    4  1  1  1
 -8.723089849920e-08    4  1  2  1
 -6.854353720822e-05    4  1  2  2
 -3.361386570861e-09    4  1  3  1
 -3.150945739894e-12    4  1  3  2
 -1.299232481112e-05    4  1  3  3
  1.440150688729e-05    4  1  4  1
 -6.855444491617e-05    4  2  1  1
 -8.722864880290e-08    4  2  2  1
 -9.016730932021e-04    4  2  2  2
 -1.195285677800e-09    4  2  3  1
 -1.398553705215e-11    4  2  3  2
 -4.586506084849e-06    4  2  3  3
 -3.295859139431e-07    4  2  4  1
  1.440397958434e-05    4  2  4  2
  4.117525281876e-08    4  3  1  1
 -2.347900240909e-12    4  3  2  1
 -1.651678395645e-08    4  3  2  2
 -1.299418436332e-11    4  3  3  1
 -1.861037203669e-07    4  3  3  3
  1.073970788877e-09    4  3  4  1
  6.731966905515e-11    4  3  4  2
  1.510331907717e-01    4  4  1  1
 -5.427599430202e-06    4  4  2  1
  1.510368668436e-01    4  4  2  2
  1.117732569274e-06    4  4  3  1
 -3.994475023597e-10    4  4  3  2
  5.047957427859e-02    4  4  3  3
 -9.017215227929e-04    4  4  4  1
 -9.018788947401e-04    4  4  4  2
 -1.860949319400e-07    4  4  4  3
  8.662527290771e-01    4  4  4  4
 -1.848528402599e-07    5  1  1  1
 -1.291164061695e-11    5  1  2  1
  4.119554532431e-08    5  1  2  2
 -1.910952474515e-12    5  1  3  1
 -4.088295371016e-09    5  1  3  3
  1.067236593289e-09    5  1  4  1
  2.483878760378e-10    5  1  4  2
  4.103159402630e-08    5  1  4  4
 -1.272780791827e-05    5  2  1  1
 -3.285818346053e-09    5  2  2  1
 -8.941481974102e-04    5  2  2  2
 -1.256327981012e-10    5  2  3  1
 -1.010548167281e-12    5  2  3  2
 -2.049883624786e-06    5  2  3  3
  8.334353209812e-08    5  2  4  1
 -3.323325764115e-07    5  2  4  2
  1.618328787122e-11    5  2  4  3
 -6.770900972796e-05    5  2  4  4
  1.068925818311e-09    5  2  5  1
  1.430758577609e-05    5  2  5  2
  2.542894970839e-12    5  3  1  1
  4.672798768694e-12    5  3  2  2
 -3.671028241740e-11    5  3  3  3
  2.642637979681e-12    5  3  4  4
  1.107981524690e-06    5  4  1  1
  1.845552584607e-10    5  4  2  1
 -5.419958089357e-06    5  4  2  2
  1.732491812600e-11    5  4  3  1
  9.673932317194e-08    5  4  3  3
 -3.327682488543e-09    5  4  4  1
 -8.670586091827e-08    5  4  4  2
 -1.909966617463e-12    5  4  4  3
  1.353347479518e-05    5  4  4  4
 -1.291319496063e-11    5  4  5  1
 -8.684111813324e-08    5  4  5  2
  1.798117565216e-09    5  4  5  4
  5.046605147815e-02    5  5  1  1
  1.116161653113e-06    5  5  2  1
  1.509235367967e-01    5  5  2  2
  9.821160422173e-08    5  5  3  1
  2.375428067064e-10    5  5  3  2
  3.029237725146e-02    5  5  3  3
 -1.298081162849e-05    5  5  4  1
 -6.842713235217e-05    5  5  4  2
 -4.124575228953e-09    5  5  4  3
  7.564619696959e-02    5  5  4  4
 -1.846573333421e-07    5  5  5  1
 -8.955274054119e-04    5  5  5  2
 -3.353195527959e-11    5  5  5  3
  1.352598906980e-05    5  5  5  4
  8.638661011993e-01    5  5  5  5
 -7.743142853899e-07    6  1  1  1
 -7.848755471121e-12    6  1  2  1
 -1.626727410835e-08    6  1  2  2
 -5.500025110969e-11    6  1  3  1
  2.409839699045e-07    6  1  3  3
  2.611547369718e-10    6  1  4  1
  6.789918764733e-11    6  1  4  2
 -6.708623011221e-08    6  1  4  4
  7.573544058386e-12    6  1  5  2
 -6.584257056373e-09    6  1  5  5
  5.187729628856e-12    6  1  6  1
  1.226797805995e-11    6  2  1  1
 -1.464278033863e-10    6  2  2  2
  2.719506024558e-11    6  2  3  3
  1.944789162515e-11    6  2  4  4
 -1.398163579032e-11    6  2  5  5
 -3.792618835214e-05    6  3  1  1
 -3.970840576638e-10    6  3  2  1
 -5.591009936756e-06    6  3  2  2
  3.329855339080e-08    6  3  3  1
  3.586894313331e-12    6  3  3  2
 -2.511030876955e-03    6  3  3  3
  2.386965782573e-08    6  3  4  1
  4.741826694719e-09    6  3  4  2
 -3.168177065609e-10    6  3  4  3
 -1.256618647206e-05    6  3  4  4
  5.795628479269e-12    6  3  5  1
  1.389245881626e-09    6  3  5  2
 -8.716768512495e-11    6  3  5  4
 -2.940379808793e-06    6  3  5  5
  2.001919722156e-08    6  3  6  1
  3.423096080787e-12    6  3  6  2
  3.156520007132e-04    6  3  6  3
 -1.828754763185e-09    6  4  1  1
  9.724246743694e-10    6  4  2  2
 -2.399086874469e-09    6  4  3  3
 -5.880447385753e-11    6  4  4  1
 -4.162327196086e-12    6  4  4  2
  1.057615917903e-08    6  4  4  4
  2.535083355561e-10    6  4  5  5
 -2.563754759480e-10    6  4  6  3
  5.676524494402e-02    6  6  1  1
  1.300610083937e-07    6  6  2  1
  3.245492993356e-02    6  6  2  2
  2.474423269731e-06    6  6  3  1
  4.909275077135e-10    6  6  3  2
  2.257536046423e-01    6  6  3  3
 -6.230901717451e-06    6  6  4  1
 -2.690956868863e-06    6  6  4  2
 -3.488271130966e-08    6  6  4  3
  4.129891970675e-02    6  6  4  4
 -2.194145813217e-09    6  6  5  1
 -1.339327925855e-06    6  6  5  2
 -7.245946371186e-12    6  6  5  3
  5.912253440926e-08    6  6  5  4
  2.672618601496e-02    6  6  5  5
 -7.736377386000e-07    6  6  6  1
 -1.461428594853e-10    6  6  6  2
 -2.527535013620e-03    6  6  6  3
  1.057047536382e-08    6  6  6  4
  4.488628739585e-12    6  6  6  5
  8.638681362600e-01    6  6  6  6
 -1.667026777037e-07    7  1  1  1
 -1.722013858276e-12    7  1  2  1
 -3.558518687710e-09    7  1  2  2
 -1.165861199439e-11    7  1  3  1
  4.064415041324e-08    7  1  3  3
  5.989191148656e-11    7  1  4  1
  1.462982911060e-11    7  1  4  2
 -1.459300306180e-08    7  1  4  4
  1.655607071414e-12    7  1  5  2
 -1.431564117642e-09    7  1  5  5
  1.499774406513e-09    7  1  6  3
  3.777492224369e-08    7  1  6  6
  2.323765576093e-12    7  2  1  1
 -3.522711313329e-11    7  2  2  2
  4.993602252895e-12    7  2  3  3
  3.541788572607e-12    7  2  4  4
 -3.568106781394e-12    7  2  5  5
  5.772666787491e-12    7  2  6  6
 -9.163639476755e-06    7  3  1  1
 -1.024897684796e-10    7  3  2  1
 -1.017073949774e-06    7  3  2  2
 -2.305051361481e-09    7  3  3  1
 -7.825172403633e-04    7  3  3  3
  6.160510281518e-09    7  3  4  1
  1.219368260927e-09    7  3  4  2
  5.117324516848e-11    7  3  4  3
 -2.713841833231e-06    7  3  4  4
  1.492907318956e-12    7  3  5  1
  3.462414724127e-10    7  3  5  2
 -2.222901185161e-11    7  3  5  4
 -4.201490689121e-07    7  3  5  5
  7.006700252650e-10    7  3  6  1
  3.648899406290e-05    7  3  6  3
 -8.564300090138e-12    7  3  6  4
  8.838108427790e-04    7  3  6  6
  9.679233478207e-10    7  3  7  1
  1.266255143255e-05    7  3  7  3
 -3.685532444575e-10    7  4  1  1
  2.096460367687e-10    7  4  2  2
 -4.021627511343e-10    7  4  3  3
 -1.254617334170e-11    7  4  4  1
  2.272542218786e-09    7  4  4  4
  5.455852082694e-11    7  4  5  5
 -1.937892593477e-11    7  4  6  3
 -3.728169897088e-10    7  4  6  6
 -1.259505271992e-11    7  4  7  3
  1.035137034609e-05    7  6  1  1
  2.666571784275e-10    7  6  2  1
 -6.197425095558e-06    7  6  2  2
  5.877772245329e-08    7  6  3  1
  1.025351812893e-11    7  6  3  2
  2.104154686050e-03    7  6  3  3
 -1.623931086776e-08    7  6  4  1
 -2.952533113839e-09    7  6  4  2
 -7.643162734399e-10    7  6  4  3
 -4.120378429319e-06    7  6  4  4
 -3.800503720028e-12    7  6  5  1
 -5.994787550383e-10    7  6  5  2
  4.974152167703e-11    7  6  5  4
 -5.882150241275e-06    7  6  5  5
  1.168914477558e-08    7  6  6  1
  1.801262024259e-12    7  6  6  2
  2.361899512219e-04    7  6  6  3
 -1.382713221372e-10    7  6  6  4
  8.603879519574e-03    7  6  6  6
 -2.008806416032e-08    7  6  7  1
 -3.510742760473e-12    7  6  7  2
 -1.419211410496e-04    7  6  7  3
  2.630685040925e-10    7  6  7  4
  7.912438402404e-03    7  6  7  6
  5.020934817511e-02    7  7  1  1
  9.705351352202e-08    7  7  2  1
  3.019898249492e-02    7  7  2  2
  1.084408328174e-06    7  7  3  1
  2.326061989801e-10    7  7  3  2
  1.487454236965e-01    7  7  3  3
 -4.521270487736e-06    7  7  4  1
 -2.107568200273e-06    7  7  4  2
 -1.605377326897e-08    7  7  4  3
  3.771463089011e-02    7  7  4  4
 -1.667276517598e-09    7  7  5  1
 -1.095641706760e-06    7  7  5  2
 -3.542885419654e-12    7  7  5  3
  4.710319895562e-08    7  7  5  4
  2.517714237909e-02    7  7  5  5
 -3.895769510844e-07    7  7  6  1
 -7.320252127467e-11    7  7  6  2
 -1.961229612998e-03    7  7  6  3
  5.300103388405e-09    7  7  6  4
  2.168954215620e-12    7  7  6  5
  4.117905516373e-01    7  7  6  6
 -1.597000311407e-07    7  7  7  1
 -2.718780149424e-11    7  7  7  2
 -7.807475424890e-04    7  7  7  3
  2.201947424744e-09    7  7  7  4
  1.038575703800e-02    7  7  7  6
  8.158156696114e-01    7  7  7  7
 -3.985286214135e-08    8  1  1  1
 -2.746485161650e-12    8  1  2  1
  7.236784995298e-09    8  1  2  2
 -8.938414831535e-10    8  1  3  3
  2.261829545936e-10    8  1  4  1
  5.288004299094e-11    8  1  4  2
  7.957448557477e-09    8  1  4  4
  7.733697061747e-11    8  1  5  2
 -1.001605860745e-12    8  1  5  4
  8.027720342872e-09    8  1  5  5
  1.264097036110e-12    8  1  6  3
 -4.786117435528e-10    8  1  6  6
 -3.628097776819e-10    8  1  7  7
 -2.825910147205e-06    8  2  1  1
 -1.527716651102e-09    8  2  2  1
 -2.096057725996e-04    8  2  2  2
 -2.891219607440e-11    8  2  3  1
 -3.947225766462e-07    8  2  3  3
  1.842367005852e-08    8  2  4  1
  3.111956628541e-09    8  2  4  2
  3.607880750575e-12    8  2  4  3
 -1.519736790512e-05    8  2  4  4
  5.748282762711e-11    8  2  5  1
  1.744573613038e-06    8  2  5  2
 -4.812039752659e-09    8  2  5  4
  1.368204131936e-04    8  2  5  5
  1.742723568776e-12    8  2  6  1
  3.174941687865e-10    8  2  6  3
 -2.404998401985e-07    8  2  6  6
  8.036130066721e-11    8  2  7  3
 -1.650890497097e-10    8  2  7  6
 -1.888991532310e-07    8  2  7  7
  5.109348152111e-11    8  2  8  1
  6.057944565184e-07    8  2  8  2
  1.598677258002e-12    8  3  2  2
 -1.703858343057e-11    8  3  3  3
  5.204201860225e-12    8  3  5  5
 -3.786851807655e-12    8  3  6  6
 -2.148286797146e-12    8  3  7  7
  2.419373378075e-07    8  4  1  1
  3.957244917234e-11    8  4  2  1
 -9.578001431534e-07    8  4  2  2
  3.748892542806e-12    8  4  3  1
  2.093301275446e-08    8  4  3  3
 -8.701168682054e-10    8  4  4  1
 -1.807505793178e-08    8  4  4  2
  2.921988347146e-06    8  4  4  4
 -6.148924982125e-09    8  4  5  2
  2.355348412489e-10    8  4  5  4
 -8.950307717051e-07    8  4  5  5
 -1.938420395824e-11    8  4  6  3
  1.259774056704e-08    8  4  6  6
 -4.953355778785e-12    8  4  7  3
  1.128504627464e-11    8  4  7  6
  9.942121558170e-09    8  4  7  7
 -4.061815490975e-09    8  4  8  2
  8.230702208967e-11    8  4  8  4
  2.507233662393e-06    8  5  1  1
  1.516332933052e-08    8  5  2  1
  6.553939543802e-04    8  5  2  2
  1.491063420389e-10    8  5  3  1
  2.719341368333e-12    8  5  3  2
 -6.203874450737e-06    8  5  3  3
 -6.317267103406e-08    8  5  4  1
 -1.128664756123e-06    8  5  4  2
 -1.378282687884e-11    8  5  4  3
  5.387712556233e-05    8  5  4  4
  2.633748623467e-09    8  5  5  1
  3.360277823332e-05    8  5  5  2
 -2.459357633149e-07    8  5  5  4
  8.603878513902e-03    8  5  5  5
 -8.838638639206e-12    8  5  6  1
 -1.109602764819e-09    8  5  6  3
 -5.881754986960e-06    8  5  6  6
 -1.942283894035e-12    8  5  7  1
 -4.077209404670e-10    8  5  7  3
  3.471285070856e-09    8  5  7  6
 -5.631934111537e-06    8  5  7  7
 -4.711097784641e-09    8  5  8  1
 -3.202209920922e-05    8  5  8  2
  3.719931357432e-07    8  5  8  4
  7.912316280437e-03    8  5  8  5
 -1.702497593488e-12    8  6  5  5
  4.204884406554e-12    8  6  6  6
  2.073593145332e-12    8  6  7  7
  1.440425854964e-12    8  7  3  3
 -4.586234121506e-12    8  7  5  5
  4.549205465357e-12    8  7  6  6
  9.508328108264e-12    8  7  7  7
  4.521627666956e-02    8  8  1  1
  5.996510451025e-07    8  8  2  1
  1.120737277094e-01    8  8  2  2
  7.524996088190e-08    8  8  3  1
  1.362145605762e-10    8  8  3  2
  2.831779298866e-02    8  8  3  3
 -8.645206804775e-06    8  8  4  1
 -3.405912577768e-05    8  8  4  2
 -2.928176325861e-09    8  8  4  3
  6.443959187617e-02    8  8  4  4
 -9.278744061250e-08    8  8  5  1
 -5.105275550202e-04    8  8  5  2
 -1.676675234112e-11    8  8  5  3
  6.893210795796e-06    8  8  5  4
  4.117880360490e-01    8  8  5  5
 -5.099497964338e-09    8  8  6  1
 -8.115758678521e-12    8  8  6  2
 -2.416315106734e-06    8  8  6  3
  1.819972024187e-10    8  8  6  4
  2.517713175305e-02    8  8  6  6
 -1.104489988844e-09    8  8  7  1
 -2.131424501462e-12    8  8  7  2
 -3.103297214431e-07    8  8  7  3
  3.907872169147e-11    8  8  7  4
 -5.632284153621e-06    8  8  7  6
  2.379773842943e-02    8  8  7  7
 -3.816162543851e-08    8  8  8  1
 -2.040712612430e-04    8  8  8  2
  1.527598584696e-12    8  8  8  3
  2.807758298678e-06    8  8  8  4
  1.038568905937e-02    8  8  8  5
 -2.966486774798e-12    8  8  8  6
 -9.261205561507e-12    8  8  8  7
  8.158148251791e-01    8  8  8  8
 -5.672726576445e-05    9  1  1  1
 -5.022529025985e-09    9  1  2  1
 -3.062253058387e-05    9  1  2  2
 -4.879818312727e-10    9  1  3  1
 -9.678790623551e-07    9  1  3  3
  3.828338360653e-07    9  1  4  1
  7.494640453729e-08    9  1  4  2
  9.294573287505e-12    9  1  4  3
  3.126854059138e-05    9  1  4  4
  5.590893328266e-11    9  1  5  1
  6.147692647830e-08    9  1  5  2
 -4.552068620343e-10    9  1  5  4
 -2.415387646115e-06    9  1  5  5
  3.053401800678e-11    9  1  6  1
  1.589898821922e-09    9  1  6  3
 -4.879167494714e-07    9  1  6  6
  6.721335993027e-12    9  1  7  1
  4.105102315931e-10    9  1  7  3
 -1.074681302277e-09    9  1  7  6
 -3.611648799286e-07    9  1  7  7
  1.182109360267e-11    9  1  8  1
  1.316509456045e-08    9  1  8  2
 -9.329019397505e-11    9  1  8  4
 -2.140393022825e-08    9  1  8  5
 -1.440471915145e-06    9  1  8  8
  3.490724107314e-08    9  1  9  1
 -2.452108618423e-04    9  2  1  1
 -1.721854456741e-06    9  2  2  1
 -1.213841921194e-02    9  2  2  2
 -3.173818765771e-09    9  2  3  1
 -2.806489726169e-10    9  2  3  2
 -2.660237063531e-05    9  2  3  3
  5.466978433946e-06    9  2  4  1
  1.471141094116e-04    9  2  4  2
  9.188698564171e-10    9  2  4  3
 -2.736176509669e-03    9  2  4  4
  4.088122801618e-09    9  2  5  1
 -3.021167549052e-05    9  2  5  2
 -2.817502529871e-07    9  2  5  4
 -9.733152444320e-04    9  2  5  5
  1.858337644747e-10    9  2  6  1
  1.576624778639e-11    9  2  6  2
  2.278809339269e-08    9  2  6  3
 -5.148253884011e-11    9  2  6  4
 -1.642660285633e-05    9  2  6  6
  4.034970329181e-11    9  2  7  1
  3.496977068542e-12    9  2  7  2
  5.800645231117e-09    9  2  7  3
 -1.103816681396e-11    9  2  7  4
 -1.269477782922e-08    9  2  7  6
 -1.312995542773e-05    9  2  7  7
  8.936992645428e-10    9  2  8  1
 -4.529589777464e-06    9  2  8  2
 -6.369632025713e-08    9  2  8  4
 -2.041935121464e-05    9  2  8  5
 -4.375091469558e-04    9  2  8  8
 -9.438440236942e-07    9  2  9  1
  8.579436043305e-03    9  2  9  2
  1.467571313287e-09    9  3  1  1
 -5.569093898774e-09    9  3  2  2
 -1.065915917223e-08    9  3  3  3
  1.335645318738e-11    9  3  4  1
  1.068293628898e-11    9  3  4  2
  2.390876114412e-09    9  3  4  4
  1.042258198465e-11    9  3  5  2
 -5.686734358353e-10    9  3  5  5
 -1.578263183727e-11    9  3  6  3
 -2.031610942436e-09    9  3  6  6
  3.252358659207e-12    9  3  7  3
 -4.301871545547e-11    9  3  7  6
 -9.546072687209e-10    9  3  7  7
  2.238250027150e-12    9  3  8  2
 -3.969105906090e-12    9  3  8  5
 -3.619195542598e-10    9  3  8  8
  3.091665308563e-12    9  3  9  1
 -9.294304225146e-11    9  3  9  2
  2.296010405211e-04    9  4  1  1
  1.397479532326e-07    9  4  2  1
  2.069835631411e-03    9  4  2  2
  4.273374602605e-09    9  4  3  1
  2.214834239282e-11    9  4  3  2
  1.316402152941e-05    9  4  3  3
  5.492457070228e-06    9  4  4  1
 -4.051272910487e-05    9  4  4  2
  3.112505241893e-10    9  4  4  3
  2.546294263130e-03    9  4  4  4
 -1.080212697176e-09    9  4  5  1
 -4.534203642497e-06    9  4  5  2
  3.808405160788e-07    9  4  5  4
  1.116327163855e-04    9  4  5  5
 -2.413603938898e-10    9  4  6  1
 -1.238550227075e-12    9  4  6  2
 -1.450861713168e-08    9  4  6  3
 -1.540822833630e-11    9  4  6  4
  7.571144815745e-06    9  4  6  6
 -5.192663334105e-11    9  4  7  1
 -3.741485322641e-09    9  4  7  3
 -3.215258061076e-12    9  4  7  4
  9.305123458307e-09    9  4  7  6
  5.881434152515e-06    9  4  7  7
 -2.230436733660e-10    9  4  8  1
 -9.666682681309e-07    9  4  8  2
  7.860554270132e-08    9  4  8  4
  1.297911364649e-06    9  4  8  5
  6.156881881142e-05    9  4  8  8
 -1.692408847306e-06    9  4  9  1
  2.310325639389e-04    9  4  9  2
 -2.572292527679e-10    9  4  9  3
  3.172526914658e-04    9  4  9  4
  5.557694275182e-06    9  5  1  1
 -8.061948671145e-10    9  5  2  1
 -1.291026882390e-04    9  5  2  2
  6.158511203169e-11    9  5  3  1
  7.776358939073e-07    9  5  3  3
 -6.823558589256e-08    9  5  4  1
  2.045383798254e-07    9  5  4  2
 -1.209843400018e-11    9  5  4  3
  4.166628641631e-05    9  5  4  4
 -2.440444040261e-10    9  5  5  1
 -1.944620920973e-06    9  5  5  2
  1.956318521981e-08    9  5  5  4
  2.347218324256e-04    9  5  5  5
 -3.663862071793e-12    9  5  6  1
 -5.714858226089e-10    9  5  6  3
  4.991226539469e-07    9  5  6  6
 -1.435749573580e-10    9  5  7  3
  2.735648719002e-10    9  5  7  6
  4.054116279448e-07    9  5  7  7
 -1.790247885709e-11    9  5  8  1
 -1.379599429129e-07    9  5  8  2
  1.380740696741e-09    9  5  8  4
 -5.837826378269e-06    9  5  8  5
  1.235446396301e-04    9  5  8  8
 -6.413675535695e-09    9  5  9  1
 -3.342950195961e-05    9  5  9  2
 -1.659099018480e-12    9  5  9  3
 -8.711695108534e-07    9  5  9  4
  6.931312015439e-07    9  5  9  5
 -6.296351228609e-11    9  6  1  1
  3.166599961030e-10    9  6  2  2
 -1.190103989007e-10    9  6  3  3
 -1.192778149872e-10    9  6  4  4
  3.351038381755e-11    9  6  5  5
 -1.439097790622e-11    9  6  6  3
  6.116018315216e-10    9  6  6  6
 -7.530371416743e-12    9  6  7  6
  3.063018582105e-10    9  6  7  7
  2.153779790062e-11    9  6  8  8
  4.901905052952e-12    9  6  9  2
  1.431685343069e-11    9  6  9  4
 -1.229117753320e-11    9  7  1  1
  7.090617994679e-11    9  7  2  2
 -2.059411703226e-11    9  7  3  3
 -2.361936470788e-11    9  7  4  4
  7.833578596365e-12    9  7  5  5
 -1.076566661375e-12    9  7  6  3
 -2.061447520523e-11    9  7  6  6
  1.485967238466e-11    9  7  7  6
  1.224058301071e-10    9  7  7  7
  5.093537263740e-12    9  7  8  8
  3.085627166568e-12    9  7  9  4
  1.215795775779e-06    9  8  1  1
 -6.068680104299e-11    9  8  2  1
 -2.065029366226e-05    9  8  2  2
  1.359191723228e-11    9  8  3  1
  1.584367254665e-07    9  8  3  3
 -1.438647552491e-08    9  8  4  1
  3.462244272298e-08    9  8  4  2
 -2.567387521192e-12    9  8  4  3
  8.954385731659e-06    9  8  4  4
 -1.523455846095e-11    9  8  5  1
 -1.574988364229e-07    9  8  5  2
  1.223623163615e-09    9  8  5  4
 -2.395654244174e-05    9  8  5  5
 -1.276249110064e-10    9  8  6  3
  9.779053363215e-08    9  8  6  6
 -3.231690968319e-11    9  8  7  3
  6.685351896853e-11    9  8  7  6
  7.764794678072e-08    9  8  7  7
 -1.162082595916e-11    9  8  8  1
 -8.668619006310e-08    9  8  8  2
  9.159766989439e-10    9  8  8  4
  7.218342440928e-06    9  8  8  5
  4.885189736613e-05    9  8  8  8
 -1.615641081032e-09    9  8  9  1
 -6.891822443570e-06    9  8  9  2
 -1.538995921201e-07    9  8  9  4
  8.646420611238e-08    9  8  9  5
  3.004704746085e-08    9  8  9  8
  9.077217246388e-02    9  9  1  1
 -3.979671170548e-06    9  9  2  1
  4.259466771461e-01    9  9  2  2
  3.795763711088e-07    9  9  3  1
 -2.499175926443e-10    9  9  3  2
  4.130816911353e-02    9  9  3  3
 -1.671132011455e-04    9  9  4  1
  8.678901519102e-04    9  9  4  2
 -3.493984546221e-08    9  9  4  3
  2.259833427153e-01    9  9  4  4
  3.695755761528e-08    9  9  5  1
 -5.343448289828e-04    9  9  5  2
  3.512937971745e-12    9  9  5  3
 -5.840658228461e-06    9  9  5  4
  1.133275647556e-01    9  9  5  5
 -2.395631841092e-08    9  9  6  1
  1.096612727094e-11    9  9  6  2
 -7.158327954218e-06    9  9  6  3
  2.017861946402e-09    9  9  6  4
  3.494969686302e-02    9  9  6  6
 -5.239613100678e-09    9  9  7  1
 -1.388138470138e-06    9  9  7  3
  4.343298046045e-10    9  9  7  4
 -5.968108164246e-06    9  9  7  6
  3.234765517408e-02    9  9  7  7
  6.937679734197e-09    9  9  8  1
 -1.156234833193e-04    9  9  8  2
  1.175568438423e-12    9  9  8  3
 -1.091019474007e-06    9  9  8  4
  2.570918917396e-04    9  9  8  5
  8.991908163016e-02    9  9  8  8
 -5.672711396879e-05    9  9  9  1
 -1.213840252866e-02    9  9  9  2
 -1.064376326055e-08    9  9  9  3
  2.546198583358e-03    9  9  9  4
  2.346504247224e-04    9  9  9  5
  6.056089979817e-10    9  9  9  6
  1.361445048539e-10    9  9  9  7
  5.056532533664e-05    9  9  9  8
  8.662628494683e-01    9  9  9  9
 -9.017309929308e-04    10  1  1  1
 -3.361879300740e-09    10  1  2  1
 -1.299267123621e-05    10  1  2  2
 -8.722437401686e-08    10  1  3  1
 -3.151584109301e-12    10  1  3  2
 -6.854252109366e-05    10  1  3  3
 -3.296479597654e-07    10  1  4  1
  8.403755497281e-08    10  1  4  2
  2.500249243407e-10    10  1  4  3
 -6.854000382278e-05    10  1  4  4
  6.680381379423e-11    10  1  5  1
  7.441073924534e-09    10  1  5  2
 -1.186873530693e-09    10  1  5  4
 -4.581425946647e-06    10  1  5  5
  4.590419685309e-09    10  1  6  1
  3.025120103547e-07    10  1  6  3
 -1.345797070276e-11    10  1  6  4
 -2.039503890075e-05    10  1  6  6
  9.665253462231e-10    10  1  7  1
  7.318530163851e-08    10  1  7  3
 -2.830931146007e-12    10  1  7  4
 -1.411103384859e-07    10  1  7  6
 -1.274233407738e-05    10  1  7  7
  1.506486779819e-11    10  1  8  1
  1.709962157661e-09    10  1  8  2
 -2.559566853626e-10    10  1  8  4
 -8.923328056544e-09    10  1  8  5
 -3.426772305147e-06    10  1  8  8
  9.269637335829e-09    10  1  9  1
  2.033277957401e-07    10  1  9  2
  1.354416639106e-11    10  1  9  3
 -3.056713015344e-07    10  1  9  4
 -3.782212937298e-09    10  1  9  5
 -8.317312597489e-10    10  1  9  8
 -2.041576151468e-05    10  1  9  9
  1.440241954051e-05    10  1  10  1
  4.117836762446e-08    10  2  1  1
 -1.299528186336e-11    10  2  2  1
 -1.861074642850e-07    10  2  2  2
 -2.347851993665e-12    10  2  3  1
 -1.651965348400e-08    10  2  3  3
  2.500554550447e-10    10  2  4  1
  1.074096043546e-09    10  2  4  2
  4.117585085363e-08    10  2  4  4
  6.618058762015e-11    10  2  5  2
 -2.330715016145e-12    10  2  5  4
 -1.649540212876e-08    10  2  5  5
  5.726370537017e-11    10  2  6  3
 -6.022392815174e-09    10  2  6  6
  1.404005211123e-11    10  2  7  3
 -2.914645568502e-11    10  2  7  6
 -4.061363622306e-09    10  2  7  7
  2.449896690539e-11    10  2  8  2
 -2.014562800950e-10    10  2  8  5
 -9.230298995269e-09    10  2  8  8
  2.097192768822e-11    10  2  9  1
  2.140431935601e-08    10  2  9  2
 -1.714320586980e-09    10  2  9  4
  7.633027984740e-12    10  2  9  5
  2.869585801625e-08    10  2  9  9
  1.074155554446e-09    10  2  10  1
 -6.853914521388e-05    10  3  1  1
 -1.195236553886e-09    10  3  2  1
 -4.584191141402e-06    10  3  2  2
 -8.722516668037e-08    10  3  3  1
 -1.399571911660e-11    10  3  3  2
 -9.017171917868e-04    10  3  3  3
  8.402318216606e-08    10  3  4  1
  7.532949514224e-09    10  3  4  2
  1.074000471723e-09    10  3  4  3
 -1.299168851509e-05    10  3  4  4
  1.622005328955e-11    10  3  5  1
  1.572248447200e-09    10  3  5  2
 -1.262291960130e-10    10  3  5  4
 -2.127943096922e-06    10  3  5  5
  1.047691308973e-09    10  3  6  1
 -5.507747730252e-06    10  3  6  3
 -1.325507100554e-11    10  3  6  4
 -1.667882841989e-04    10  3  6  6
  2.229045123403e-10    10  3  7  1
 -3.557268565481e-07    10  3  7  3
 -2.808416875738e-12    10  3  7  4
 -4.639328169397e-06    10  3  7  6
 -6.626568514826e-05    10  3  7  7
  3.499555153691e-12    10  3  8  1
  3.627243678500e-10    10  3  8  2
 -2.782217329359e-11    10  3  8  4
 -1.739284596793e-09    10  3  8  5
 -1.696574427276e-06    10  3  8  8
  4.979911389905e-09    10  3  9  1
  3.037091349735e-08    10  3  9  2
  5.919827945914e-11    10  3  9  3
 -2.429311070030e-08    10  3  9  4
 -6.883650313967e-10    10  3  9  5
 -1.536280046618e-10    10  3  9  8
 -6.235105812566e-06    10  3  9  9
 -3.296579489658e-07    10  3  10  1
  6.731279909084e-11    10  3  10  2
  1.440194665484e-05    10  3  10  3
 -5.427385030887e-06    10  4  1  1
  1.858522403818e-10    10  4  2  1
  1.117821451646e-06    10  4  2  2
  1.858293483095e-10    10  4  3  1
  1.117737574248e-06    10  4  3  3
 -8.722177372219e-08    10  4  4  1
 -3.363038785668e-09    10  4  4  2
 -1.299380081671e-11    10  4  4  3
  1.362687456214e-05    10  4  4  4
 -2.332641735478e-12    10  4  5  1
 -1.184809485283e-09    10  4  5  2
  1.263726252170e-10    10  4  5  4
  2.527353522381e-07    10  4  5  5
 -1.005672409647e-11    10  4  6  1
 -4.225323994663e-09    10  4  6  3
  3.792134397854e-07    10  4  6  6
 -2.109048546422e-12    10  4  7  1
 -1.032397025986e-09    10  4  7  3
  2.106780477606e-09    10  4  7  6
  2.485080944582e-07    10  4  7  7
 -2.635163975435e-10    10  4  8  2
  2.866010353037e-11    10  4  8  4
  9.809761359626e-10    10  4  8  5
  1.750619494981e-07    10  4  8  8
 -7.563410642507e-10    10  4  9  1
 -7.019401657497e-08    10  4  9  2
 -3.291519484736e-08    10  4  9  4
  9.095912605645e-10    10  4  9  5
  1.926539251950e-10    10  4  9  8
  2.478843807838e-06    10  4  9  9
 -8.722397712246e-08    10  4  10  1
 -1.299558077917e-11    10  4  10  2
 -3.361123934763e-09    10  4  10  3
  1.813295309096e-09    10  4  10  4
 -3.974226375386e-10    10  5  1  1
 -3.996296052053e-10    10  5  2  2
  2.363757761737e-10    10  5  3  3
 -3.130722542499e-12    10  5  4  1
 -3.130343162117e-12    10  5  4  2
 -2.916871353041e-10    10  5  4  4
 -1.392392166726e-11    10  5  5  2
  2.535560120127e-09    10  5  5  5
  8.998808714561e-11    10  5  6  6
  6.179412318756e-11    10  5  7  7
 -3.213687739158e-11    10  5  8  5
  1.270681068962e-09    10  5  8  8
 -5.277744709107e-11    10  5  9  2
  1.329042772268e-11    10  5  9  4
  3.177579548346e-12    10  5  9  5
 -3.261979398747e-10    10  5  9  9
 -1.389682748911e-11    10  5  10  1
 -1.023885964694e-12    10  5  10  3
  4.443970355952e-06    10  6  1  1
  7.168906375205e-11    10  6  2  1
  3.592705605605e-07    10  6  2  2
  7.498118030685e-10    10  6  3  1
 -3.126822265738e-05    10  6  3  3
 -4.944744184895e-09    10  6  4  1
 -5.030739700937e-10    10  6  4  2
 -9.207770604179e-12    10  6  4  3
  9.546165242467e-07    10  6  4  4
 -1.131417488374e-10    10  6  5  2
  8.588013105647e-12    10  6  5  4
  1.733154024401e-07    10  6  5  5
 -2.391478414577e-10    10  6  6  1
 -1.687570624696e-06    10  6  6  3
  3.073731353192e-12    10  6  6  4
  5.631406271216e-05    10  6  6  6
 -1.801809830702e-11    10  6  7  1
 -6.246084369415e-08    10  6  7  3
 -1.178547391231e-06    10  6  7  6
  2.906336986459e-05    10  6  7  7
 -2.604830090107e-11    10  6  8  2
  1.896334469475e-12    10  6  8  4
  1.172838545959e-10    10  6  8  5
  1.395452676315e-07    10  6  8  8
 -2.972051426282e-10    10  6  9  1
 -2.104721275102e-09    10  6  9  2
  1.605917643241e-09    10  6  9  4
  4.880324873179e-11    10  6  9  5
  1.089480461732e-11    10  6  9  8
  4.801158823626e-07    10  6  9  9
 -9.134235299640e-09    10  6  10  1
 -7.455951418081e-12    10  6  10  2
 -3.804941184820e-07    10  6  10  3
  4.840038970400e-10    10  6  10  4
  3.462948070037e-08    10  6  10  6
  9.730606255656e-07    10  7  1  1
  1.553704574367e-11    10  7  2  1
  7.735583797448e-08    10  7  2  2
  1.645612256833e-10    10  7  3  1
 -5.213107088045e-06    10  7  3  3
 -1.066882682981e-09    10  7  4  1
 -1.115848258715e-10    10  7  4  2
 -2.069911773246e-12    10  7  4  3
  2.098751198606e-07    10  7  4  4
 -2.534777518757e-11    10  7  5  2
  1.909897693738e-12    10  7  5  4
  3.605512718426e-08    10  7  5  5
 -1.646558250598e-11    10  7  6  1
 -1.226795965594e-07    10  7  6  3
 -4.561187507696e-06    10  7  6  6
 -1.143866605411e-11    10  7  7  1
 -7.901657717377e-08    10  7  7  3
  1.624659446892e-06    10  7  7  6
  1.172430072853e-05    10  7  7  7
 -5.847674162425e-12    10  7  8  2
  2.746060982404e-11    10  7  8  5
  2.861791603966e-08    10  7  8  8
 -6.434015338880e-11    10  7  9  1
 -4.696926817686e-10    10  7  9  2
  3.555646416035e-10    10  7  9  4
  1.091748599412e-11    10  7  9  5
  2.440218336547e-12    10  7  9  8
  1.042877666847e-07    10  7  9  9
 -2.899268668829e-09    10  7  10  1
 -1.711089430019e-12    10  7  10  2
 -7.856535962648e-08    10  7  10  3
  1.130264592706e-10    10  7  10  4
  4.448352354549e-09    10  7  10  6
  1.551376429185e-09    10  7  10  7
 -8.047158148600e-11    10  8  1  1
 -6.943331651270e-11    10  8  2  2
  5.154870521715e-11    10  8  3  3
 -5.591068907667e-11    10  8  4  4
 -1.011416826567e-12    10  8  5  2
 -8.388464960507e-11    10  8  5  5
  1.969767825175e-11    10  8  6  6
  1.353375748793e-11    10  8  7  7
  6.245934769007e-11    10  8  8  5
  5.253326937359e-10    10  8  8  8
 -1.148863041594e-11    10  8  9  2
  2.746608024096e-12    10  8  9  4
 -6.116638224059e-11    10  8  9  9
 -2.980508215611e-12    10  8  10  1