 &FCI NORB=20 ,NELEC=20 ,MS2=0,
  ORBSYM=1,1,1,1,1,1,1,1,1,1,1,1,1,1,1,1,1,1,1,1,
  ISYM=1,
 &END
  1.206355637304e+00    1  1  1  1
 -4.421098149179e-03    2  1  1  1
  2.991928556476e-04    2  1  2  1
  3.245310006407e-01    2  2  1  1
 -4.422783334188e-03    2  2  2  1
  1.206349148754e+00    2  2  2  2
 -5.173852980181e-05    3  1  1  1
 -1.438381041205e-07    3  1  2  1
 -1.138368012645e-05    3  1  2  2
  3.803238677474e-08    3  1  3  1
 -1.479446996359e-06    3  2  1  1
 -7.605646478116e-08    3  2  2  1
  3.139162260165e-06    3  2  2  2
 -1.020520660230e-09    3  2  3  1
  8.414194075540e-11    3  2  3  2
  1.419337195251e-01    3  3  1  1
 -1.056316697879e-04    3  3  2  1
  9.966973098820e-02    3  3  2  2
 -5.302673233153e-05    3  3  3  1
  3.573978291531e-06    3  3  3  2
  1.205758791246e+00    3  3  3  3
 -5.193352842290e-05    4  1  1  1
  1.629775691414e-06    4  1  2  1
  4.669095101817e-05    4  1  2  2
 -1.209421130340e-09    4  1  3  1
 -8.768265703519e-11    4  1  3  2
 -1.980763414410e-06    4  1  3  3
  3.760742915461e-08    4  1  4  1
  1.788303864894e-04    4  2  1  1
  5.345682841790e-06    4  2  2  1
  8.895416557119e-04    4  2  2  2
 -1.547571679362e-08    4  2  3  1
 -1.152564637812e-09    4  2  3  2
  8.905800694937e-06    4  2  3  3
 -5.273027110251e-07    4  2  4  1
  2.424613754350e-05    4  2  4  2
 -1.072796195030e-08    4  3  1  1
 -5.839179905582e-11    4  3  2  1
 -6.532334734682e-08    4  3  2  2
 -3.342816764607e-11    4  3  3  1
  1.888850487441e-12    4  3  3  2
  4.531866884569e-07    4  3  3  3
  4.911956276664e-12    4  3  4  1
 -1.277196192347e-11    4  3  4  2
  1.418590387675e-01    4  4  1  1
 -4.088420939546e-04    4  4  2  1
  2.455427463203e-01    4  4  2  2
 -1.951844580221e-06    4  4  3  1
  3.451079461075e-07    4  4  3  2
  7.128237724945e-02    4  4  3  3
 -5.167024015560e-05    4  4  4  1
  8.901961625153e-04    4  4  4  2
 -3.502627450090e-07    4  4  4  3
  1.201876389227e+00    4  4  4  4
 -6.018041873550e-04    5  1  1  1
 -1.435431600188e-07    5  1  2  1
 -1.009550152185e-04    5  1  2  2
  1.793801180920e-07    5  1  3  1
 -1.197818368831e-09    5  1  3  2
 -2.152352148395e-04    5  1  3  3
 -5.827778780620e-10    5  1  4  1
 -1.468283604090e-07    5  1  4  2
 -9.130270710230e-11    5  1  4  3
 -1.559181534237e-05    5  1  4  4
  3.459228496823e-06    5  1  5  1
 -1.220952491279e-05    5  2  1  1
 -7.007938855683e-07    5  2  2  1
  3.243884978558e-05    5  2  2  2
 -7.092954146885e-10    5  2  3  1
  3.668415766230e-10    5  2  3  2
  1.076584776926e-05    5  2  3  3
 -7.749673824669e-10    5  2  4  1
  3.776441615699e-09    5  2  4  2
  3.643507497896e-12    5  2  4  3
  2.877305012542e-06    5  2  4  4
 -7.980141468080e-08    5  2  5  1
  6.486046292170e-09    5  2  5  2
  1.435304892062e-04    5  3  1  1
 -7.404594047743e-07    5  3  2  1
  3.582226206693e-05    5  3  2  2
 -4.095999297323e-06    5  3  3  1
  1.721158875796e-07    5  3  3  2
 -5.342337891232e-03    5  3  3  3
 -9.829102259410e-09    5  3  4  1
  2.103105588574e-08    5  3  4  2
  5.407762744214e-10    5  3  4  3
  1.090344889626e-05    5  3  4  4
  1.654748100429e-05    5  3  5  1
 -6.586451915009e-07    5  3  5  2
  2.035855242189e-03    5  3  5  3
 -1.331368611814e-07    5  4  1  1
 -1.629103145704e-09    5  4  2  1
 -1.221272898181e-07    5  4  2  2
 -1.810887554995e-11    5  4  3  1
  1.196485802829e-12    5  4  3  2
  1.273333838536e-07    5  4  3  3
 -1.245703345032e-10    5  4  4  1
  2.992211699530e-09    5  4  4  2
  4.605107986867e-07    5  4  4  4
 -1.053880620085e-09    5  4  5  1
  4.714783817353e-11    5  4  5  2
 -8.465812653154e-09    5  4  5  3
  1.275707983077e-12    5  4  5  4
  1.976704549388e-01    5  5  1  1
 -2.418170839500e-04    5  5  2  1
  1.243788459759e-01    5  5  2  2
  5.487164696930e-05    5  5  3  1
 -1.712589806284e-06    5  5  3  2
  4.732393413318e-01    5  5  3  3
 -4.092683189686e-06    5  5  4  1
  1.597605980646e-05    5  5  4  2
  1.139916753297e-07    5  5  4  3
  8.311290310791e-02    5  5  4  4
 -6.028585940543e-04    5  5  5  1
  3.304363703431e-05    5  5  5  2
 -5.370642232443e-03    5  5  5  3
  3.385059574247e-07    5  5  5  4
  1.206339525079e+00    5  5  5  5
 -5.341882432694e-03    6  1  1  1
  1.718366431914e-04    6  1  2  1
  6.504350451136e-04    6  1  2  2
 -4.099885550524e-06    6  1  3  1
  5.609863705081e-08    6  1  3  2
  1.458602859869e-04    6  1  3  3
  1.757411653335e-06    6  1  4  1
  1.480261073775e-06    6  1  4  2
  7.291027126250e-10    6  1  4  3
  5.430225716724e-05    6  1  4  4
 -3.617411408874e-05    6  1  5  1
  4.385662969620e-07    6  1  5  2
  7.662595687657e-06    6  1  5  3
  5.623700828113e-09    6  1  5  4
  6.502927893306e-04    6  1  5  5
  2.036989903270e-03    6  1  6  1
  5.726315137558e-04    6  2  1  1
  1.505759827564e-05    6  2  2  1
 -6.024669327676e-04    6  2  2  2
 -1.208090312960e-08    6  2  3  1
 -9.169678954886e-09    6  2  3  2
 -3.387342124536e-05    6  2  3  3
  7.908506947472e-09    6  2  4  1
  2.292280922909e-07    6  2  4  2
 -1.872597297670e-11    6  2  4  3
 -5.524364398011e-05    6  2  4  4
 -2.690052061162e-07    6  2  5  1
 -7.951685783901e-08    6  2  5  2
 -6.521092374474e-07    6  2  5  3
 -2.097589711579e-10    6  2  5  4
 -1.010557768886e-04    6  2  5  5
 -3.617250678986e-05    6  2  6  1
  3.459534424241e-06    6  2  6  2
 -2.148775845671e-04    6  3  1  1
  1.662445641370e-06    6  3  2  1
 -3.380962060265e-05    6  3  2  2
  1.800363151595e-07    6  3  3  1
 -9.399467570198e-09    6  3  3  2
 -6.016257507590e-04    6  3  3  3
  2.015274819774e-08    6  3  4  1
 -2.699519476234e-08    6  3  4  2
 -3.495766706946e-10    6  3  4  3
 -8.514190280167e-06    6  3  4  4
 -1.534505958174e-07    6  3  5  1
  1.172193314610e-09    6  3  5  2
 -3.618011642039e-05    6  3  5  3
 -1.944291600868e-11    6  3  5  4
  5.727308168470e-04    6  3  5  5
  1.651497686022e-05    6  3  6  1
  1.277116137728e-07    6  3  6  2
  3.454778825598e-06    6  3  6  3
  4.773766476173e-06    6  4  1  1
  2.173093220124e-08    6  4  2  1
  3.665204921329e-06    6  4  2  2
  7.413966315864e-11    6  4  3  1
 -2.661486476447e-11    6  4  3  2
 -4.470933267965e-07    6  4  3  3
  2.569700479562e-09    6  4  4  1
 -6.490806631533e-08    6  4  4  2
 -6.404211586532e-06    6  4  4  4
 -1.028507025311e-09    6  4  5  1
 -1.855422218813e-10    6  4  5  2
 -7.981406268164e-09    6  4  5  3
 -1.560110464287e-11    6  4  5  4
 -1.258908877331e-06    6  4  5  5
 -4.643541160373e-07    6  4  6  1
  2.298260190750e-08    6  4  6  2
  1.008148704315e-09    6  4  6  3
  5.638916660002e-10    6  4  6  4
 -1.736165178504e-03    6  5  1  1
  1.411992364312e-05    6  5  2  1
 -2.418708310884e-04    6  5  2  2
 -2.786591880230e-08    6  5  3  1
 -8.131654805175e-09    6  5  3  2
 -1.735540811606e-03    6  5  3  3
  1.694033300806e-07    6  5  4  1
 -2.130410588481e-07    6  5  4  2
 -6.779741627863e-10    6  5  4  3
 -5.547463308285e-05    6  5  4  4
  1.505691853217e-05    6  5  5  1
 -7.028866424331e-07    6  5  5  2
  1.719178629993e-04    6  5  5  3
 -8.598793601388e-09    6  5  5  4
 -4.421916390552e-03    6  5  5  5
  1.718484352349e-04    6  5  6  1
 -1.411324114747e-07    6  5  6  2
  1.503440683960e-05    6  5  6  3
 -7.348384769043e-09    6  5  6  4
  2.991900789020e-04    6  5  6  5
  4.733494331479e-01    6  6  1  1
 -1.736007360868e-03    6  6  2  1
  1.976708126153e-01    6  6  2  2
  5.512307009425e-05    6  6  3  1
 -1.185893201551e-06    6  6  3  2
  1.976486054276e-01    6  6  3  3
 -2.331581827169e-05    6  6  4  1
  5.244541532203e-05    6  6  4  2
  1.788877106900e-08    6  6  4  3
  1.106164286165e-01    6  6  4  4
  5.727726980349e-04    6  6  5  1
 -1.214061132960e-05    6  6  5  2
  6.449275352125e-04    6  6  5  3
 -1.640574605359e-07    6  6  5  4
  3.245301161320e-01    6  6  5  5
 -5.342757424372e-03    6  6  6  1
 -6.023557889827e-04    6  6  6  2
 -6.015875159408e-04    6  6  6  3
 -6.780507947972e-06    6  6  6  4
 -4.421752177179e-03    6  6  6  5
  1.206355266366e+00    6  6  6  6
  9.030700357696e-04    7  1  1  1
  5.363422774056e-06    7  1  2  1
  1.818179008428e-04    7  1  2  2
 -5.297708534085e-07    7  1  3  1
  6.122130786495e-09    7  1  3  2
  1.816399280060e-04    7  1  3  3
  5.341889134255e-08    7  1  4  1
  3.132674780358e-07    7  1  4  2
  1.413192959291e-10    7  1  4  3
  2.319858558702e-05    7  1  4  4
 -6.456050247302e-06    7  1  5  1
  1.114333846741e-07    7  1  5  2
  6.541977564087e-06    7  1  5  3
  1.358103065501e-09    7  1  5  4
  9.771241300262e-04    7  1  5  5
  1.080921820031e-04    7  1  6  1
  6.839781469603e-07    7  1  6  2
  6.830128726174e-07    7  1  6  3
  3.948600305503e-09    7  1  6  4
 -7.192647754777e-06    7  1  6  5
 -2.033098403184e-03    7  1  6  6
  2.450587854217e-05    7  1  7  1
  4.693184087071e-05    7  2  1  1
  1.644423828409e-06    7  2  2  1
 -5.216678448740e-05    7  2  2  2
  4.393620738608e-09    7  2  3  1
 -9.983931261876e-10    7  2  3  2
 -1.162070239805e-05    7  2  3  3
  2.455701889212e-09    7  2  4  1
  5.384680741090e-08    7  2  4  2
 -5.776315379131e-12    7  2  4  3
 -6.490215166289e-06    7  2  4  4
  9.087250157792e-08    7  2  5  1
 -1.111378397370e-08    7  2  5  2
 -2.362799065721e-07    7  2  5  3
 -6.133014518330e-11    7  2  5  4
 -4.929433037384e-05    7  2  5  5
 -1.242516497996e-06    7  2  6  1
  1.797565996660e-07    7  2  6  2
 -1.275075056949e-08    7  2  6  3
  4.050712794067e-10    7  2  6  4
  3.792315549032e-07    7  2  6  5
  5.492502170266e-05    7  2  6  6
 -5.310379652576e-07    7  2  7  1
  3.808038772242e-08    7  2  7  2
 -4.088082766949e-04    7  3  1  1
  2.029428879603e-06    7  3  2  1
 -1.053367860263e-04    7  3  2  2
  1.647501033940e-06    7  3  3  1
 -7.815588723549e-08    7  3  3  2
 -4.417403760831e-03    7  3  3  3
  2.712136224788e-08    7  3  4  1
 -6.030853500333e-08    7  3  4  2
 -2.801858532686e-09    7  3  4  3
 -3.256766131115e-05    7  3  4  4
 -8.711773031302e-06    7  3  5  1
  3.687729573628e-07    7  3  5  2
 -4.912835849339e-04    7  3  5  3
  3.004264660474e-09    7  3  5  4
  5.147319624421e-03    7  3  5  5
 -1.788870914458e-05    7  3  6  1
  1.662101974192e-06    7  3  6  2
  1.505120086255e-05    7  3  6  3
  1.988293840740e-08    7  3  6  4
 -1.086312868414e-04    7  3  6  5
 -1.733633219813e-03    7  3  6  6
  5.366314555507e-06    7  3  7  1
 -1.395453551067e-07    7  3  7  2
  2.988863778284e-04    7  3  7  3
  3.370416872215e-07    7  4  1  1
  4.350829229062e-09    7  4  2  1
  4.281876525270e-07    7  4  2  2
  3.315231494970e-11    7  4  3  1
 -2.967591002052e-12    7  4  3  2
 -3.166560447101e-07    7  4  3  3
  3.305330486535e-10    7  4  4  1
 -7.905916152513e-09    7  4  4  2
 -7.427732936201e-07    7  4  4  4
  1.107477247478e-09    7  4  5  1
 -6.172367542483e-11    7  4  5  2
 -8.276789859554e-09    7  4  5  3
 -2.350004892378e-12    7  4  5  4
 -1.211505966674e-06    7  4  5  5
 -1.488760561037e-08    7  4  6  1
  4.664265727188e-10    7  4  6  2
 -5.965782816262e-10    7  4  6  3
  4.030549960216e-11    7  4  6  4
  9.619648737720e-10    7  4  6  5
  4.393183487416e-07    7  4  6  6
 -8.517436385971e-09    7  4  7  1
  3.677661488931e-10    7  4  7  2
  3.183077046454e-09    7  4  7  3
  1.096191392663e-11    7  4  7  4
 -2.865779099791e-03    7  5  1  1
  1.662139001293e-05    7  5  2  1
 -6.301746052902e-04    7  5  2  2
 -2.666951713961e-06    7  5  3  1
  8.184865251751e-08    7  5  3  2
 -1.494191719139e-02    7  5  3  3
  2.152205045118e-07    7  5  4  1
 -4.144227610644e-07    7  5  4  2
 -5.792301546934e-09    7  5  4  3
 -1.764632398536e-04    7  5  4  4
  9.939405091743e-05    7  5  5  1
 -4.624330929009e-06    7  5  5  2
  1.311724699917e-03    7  5  5  3
 -7.891781866219e-08    7  5  5  4
 -5.263624153775e-02    7  5  5  5
 -2.053820747540e-04    7  5  6  1
  1.655692983025e-05    7  5  6  2
 -4.680214318701e-05    7  5  6  3
  2.004851273102e-07    7  5  6  4
  5.363961396161e-04    7  5  6  5
 -1.494866246331e-02    7  5  6  6
 -1.686567451427e-05    7  5  7  1
  1.148983321993e-06    7  5  7  2
  5.350222951739e-04    7  5  7  3
  7.522523420972e-08    7  5  7  4
  2.808938782124e-02    7  5  7  5
  1.756863431980e-03    7  6  1  1
 -1.790042741772e-05    7  6  2  1
  1.458180484801e-04    7  6  2  2
 -1.240426917978e-06    7  6  3  1
  5.605462985879e-08    7  6  3  2
  6.501845791969e-04    7  6  3  3
 -2.044053160517e-07    7  6  4  1
  1.756722738023e-07    7  6  4  2
  8.302378414003e-10    7  6  4  3
  2.620197539538e-05    7  6  4  4
 -2.466735626407e-05    7  6  5  1
  1.039556318521e-06    7  6  5  2
 -7.866953435293e-06    7  6  5  3
  1.149197838690e-08    7  6  5  4
  3.635878397900e-03    7  6  5  5
 -5.134930202370e-04    7  6  6  1
  1.653381208546e-05    7  6  6  2
 -3.613132915681e-05    7  6  6  3
  2.023567885153e-07    7  6  6  4
 -4.913854190778e-04    7  6  6  5
 -5.344363365309e-03    7  6  6  6
  1.081294525829e-04    7  6  7  1
 -4.097219035033e-06    7  6  7  2
  1.717043456304e-04    7  6  7  3
 -5.353933540913e-08    7  6  7  4
  1.310371828020e-03    7  6  7  5
  2.037003635302e-03    7  6  7  6
  2.457928699879e-01    7  7  1  1
 -4.096030953962e-04    7  7  2  1
  1.419456793801e-01    7  7  2  2
  4.687195337177e-05    7  7  3  1
 -1.403981999906e-06    7  7  3  2
  3.244742451609e-01    7  7  3  3
 -6.483409867946e-06    7  7  4  1
  2.251629726725e-05    7  7  4  2
  6.937914269515e-08    7  7  4  3
  9.062769622214e-02    7  7  4  4
  2.484170782937e-04    7  7  5  1
 -3.337188348425e-06    7  7  5  2
  3.615743566480e-03    7  7  5  3
 -4.145676123455e-08    7  7  5  4
  7.830841616242e-01    7  7  5  5
  1.757635570214e-03    7  7  6  1
 -2.151524926673e-04    7  7  6  2
  5.723784482842e-04    7  7  6  3
 -2.623346304386e-06    7  7  6  4
  5.145791232713e-03    7  7  6  5
  4.733500635339e-01    7  7  6  6
  9.027114281271e-04    7  7  7  1
 -5.285369701741e-05    7  7  7  2
 -4.415002641596e-03    7  7  7  3
 -1.693474812612e-06    7  7  7  4
 -5.263571162028e-02    7  7  7  5
 -5.342018287743e-03    7  7  7  6
  1.206349355570e+00    7  7  7  7
 -1.824006861486e-06    8  1  1  1
 -1.584437496591e-09    8  1  2  1
 -3.504449955100e-07    8  1  2  2
  6.068157194535e-10    8  1  3  1
 -5.077395158529e-12    8  1  3  2
  1.377460809179e-06    8  1  3  3
 -7.403107542534e-12    8  1  4  1
 -4.858318559855e-10    8  1  4  2
 -5.105216217246e-08    8  1  4  4
  5.827948195637e-09    8  1  5  1
 -4.839353920967e-11    8  1  5  2
 -3.455926288690e-08    8  1  5  3
  9.522164299426e-07    8  1  5  5
 -1.129481911113e-07    8  1  6  1
 -3.217991962479e-10    8  1  6  2
  5.444075483054e-10    8  1  6  3
  2.985935506227e-12    8  1  6  4
  6.263672124920e-09    8  1  6  5
  1.272621252985e-06    8  1  6  6
 -1.479139484356e-08    8  1  7  1
  1.044860196304e-10    8  1  7  2
  3.356399972157e-09    8  1  7  3
  1.777010881505e-08    8  1  7  5
 -2.967515227537e-08    8  1  7  6
  1.107835427801e-06    8  1  7  7
  4.211917982359e-11    8  1  8  1
 -5.282091585907e-08    8  2  1  1
 -1.949581496944e-09    8  2  2  1
  2.089521848849e-08    8  2  2  2
 -5.689913159751e-12    8  2  3  1
  1.075191819016e-12    8  2  3  2
 -3.932758328561e-08    8  2  3  3
 -6.400952882462e-12    8  2  4  1
 -4.453352264661e-11    8  2  4  2
 -2.802096867394e-09    8  2  4  4
 -5.139873855779e-11    8  2  5  1
  9.770220977028e-12    8  2  5  2
  1.348614483062e-09    8  2  5  3
 -2.341772303019e-08    8  2  5  5
  1.517593674420e-09    8  2  6  1
 -2.317253271821e-10    8  2  6  2
 -4.500126664100e-11    8  2  6  3
 -1.135540767578e-12    8  2  6  4
 -4.895721269422e-10    8  2  6  5
 -2.896096064299e-08    8  2  6  6
  1.461893989219e-10    8  2  7  1
 -2.458650054415e-11    8  2  7  2
 -1.410174106808e-10    8  2  7  3
 -1.312620167107e-09    8  2  7  5
  1.343459674639e-09    8  2  7  6
 -3.308063035813e-08    8  2  7  7
 -1.192391494273e-12    8  2  8  1
 -1.147408417059e-05    8  3  1  1
 -9.910753252718e-08    8  3  2  1
 -2.139535183781e-05    8  3  2  2
  1.643258768041e-07    8  3  3  1
 -3.351001298642e-09    8  3  3  2
  2.109210823197e-03    8  3  3  3
 -1.278427692422e-09    8  3  4  1
  2.586993318355e-09    8  3  4  2
  7.406731984302e-10    8  3  4  3
 -1.797994046743e-05    8  3  4  4
 -9.942605588358e-07    8  3  5  1
  4.666720838285e-08    8  3  5  2
 -1.231772658314e-04    8  3  5  3
  5.252836696226e-10    8  3  5  4
  8.554297710020e-04    8  3  5  5
  3.983195627985e-07    8  3  6  1
 -5.425274973209e-08    8  3  6  2
  7.648427705055e-07    8  3  6  3
 -6.183711795849e-10    8  3  6  4
 -8.529884785605e-06    8  3  6  5
  3.621629629077e-05    8  3  6  6
  7.269285446550e-07    8  3  7  1
 -3.531125673642e-08    8  3  7  2
  1.374727926366e-05    8  3  7  3
 -7.428990651722e-10    8  3  7  4
 -8.785265365323e-05    8  3  7  5
  3.426073658047e-06    8  3  7  6
  3.065921986875e-04    8  3  7  7
 -5.248110877289e-08    8  3  8  1
  2.364914167131e-09    8  3  8  2
  1.827867212535e-04    8  3  8  3
  3.141319372628e-09    8  4  1  1
 -3.755071073195e-11    8  4  2  1
  1.284708214329e-08    8  4  2  2
 -1.672672122203e-08    8  4  3  3
 -5.139615716924e-12    8  4  4  1
  9.788139911237e-11    8  4  4  2
  8.751401678380e-08    8  4  4  4
 -5.728237168594e-11    8  4  5  3
 -8.025073988291e-09    8  4  5  5
  2.139856272921e-11    8  4  6  1
 -4.733414231946e-12    8  4  6  2
  4.684274926168e-12    8  4  6  3
  2.908459264891e-12    8  4  6  5
 -9.668875149114e-10    8  4  6  6
  1.878551861447e-12    8  4  7  1
  4.024393288695e-11    8  4  7  3
 -2.229960246547e-12    8  4  7  5
  1.187596860327e-11    8  4  7  6
 -5.336855347557e-09    8  4  7  7
  6.165956072564e-11    8  4  8  3
  1.287236352214e-05    8  5  1  1
 -6.993673083546e-08    8  5  2  1
  1.737461180354e-06    8  5  2  2
  1.601211493129e-08    8  5  3  1
 -1.000658715694e-09    8  5  3  2
 -4.835752025981e-04    8  5  3  3
 -9.665587178742e-10    8  5  4  1
  2.437028482990e-09    8  5  4  2
 -1.887325178575e-10    8  5  4  3
 -6.886961643253e-07    8  5  4  4
 -7.018213760516e-08    8  5  5  1
  7.363853451153e-09    8  5  5  2
  2.322337795886e-05    8  5  5  3
  4.579371200621e-11    8  5  5  4
  3.601442318780e-04    8  5  5  5
  4.239193394792e-07    8  5  6  1
 -4.522069920058e-08    8  5  6  2
  2.497995805553e-07    8  5  6  3
 -5.398959832757e-10    8  5  6  4
  2.130425081645e-07    8  5  6  5
  5.244268242004e-05    8  5  6  6
  6.450561218883e-07    8  5  7  1
 -2.791107399097e-08    8  5  7  2
 -6.000254473098e-07    8  5  7  3
 -6.807998889598e-10    8  5  7  4
 -1.440286658027e-05    8  5  7  5
  2.153614303496e-06    8  5  7  6
  2.946028339093e-04    8  5  7  7
 -5.729640589905e-09    8  5  8  1
  2.424922174794e-10    8  5  8  2
  1.084961752059e-05    8  5  8  3
  1.898385429391e-06    8  5  8  5
 -7.263219999165e-06    8  6  1  1
  5.413561978230e-08    8  6  2  1
 -1.168251594233e-06    8  6  2  2
  1.317576929717e-10    8  6  3  1
 -2.697695294348e-11    8  6  3  2
  1.192302331245e-05    8  6  3  3
  6.620838126071e-10    8  6  4  1
 -9.462110079156e-10    8  6  4  2
  3.958806134028e-12    8  6  4  3
 -2.665689863066e-07    8  6  4  4
 -1.128757731887e-09    8  6  5  1
 -2.088809256123e-10    8  6  5  2
 -2.663243968756e-07    8  6  5  3
 -2.770265979880e-12    8  6  5  4
  9.455825275002e-06    8  6  5  5
  4.377238596212e-07    8  6  6  1
  9.053970238263e-09    8  6  6  2
  5.119857399857e-08    8  6  6  3
  9.087368689787e-11    8  6  6  4
  4.814696627018e-07    8  6  6  5
 -2.295631436468e-05    8  6  6  6
  3.034397768890e-08    8  6  7  1
 -6.667140339854e-10    8  6  7  2
  2.728556277318e-10    8  6  7  3
 -1.720530698683e-11    8  6  7  4
 -3.577682764803e-07    8  6  7  5
 -8.492716644684e-07    8  6  7  6
  1.238561777492e-05    8  6  7  7
  2.203474101321e-10    8  6  8  1
 -1.021129322652e-11    8  6  8  2
 -4.625056603236e-07    8  6  8  3
 -4.816403028660e-08    8  6  8  5
  3.381545126734e-09    8  6  8  6
 -9.582399794142e-06    8  7  1  1
  4.811333916400e-08    8  7  2  1
 -2.361489890779e-06    8  7  2  2
  2.314624846819e-09    8  7  3  1
 -2.674333416682e-11    8  7  3  2
  1.067604617000e-04    8  7  3  3
  6.453188508857e-10    8  7  4  1
 -1.448572152830e-09    8  7  4  2
  3.541650676113e-11    8  7  4  3
 -6.323206241378e-07    8  7  4  4
 -8.840397488124e-08    8  7  5  1
  3.362709683194e-09    8  7  5  2
 -4.925560436025e-06    8  7  5  3
  5.731171487671e-12    8  7  5  4
  3.963960137591e-05    8  7  5  5
 -4.364041091908e-07    8  7  6  1
  3.968527369874e-08    8  7  6  2
 -2.192702979852e-08    8  7  6  3
  4.764817841964e-10    8  7  6  4
 -1.568753561247e-06    8  7  6  5
 -4.096865632815e-05    8  7  6  6
  3.642058463253e-08    8  7  7  1
  2.791132250742e-10    8  7  7  2
  3.236627444333e-06    8  7  7  3
  1.427304393341e-10    8  7  7  4
  2.600644847981e-05    8  7  7  5
  3.493184730219e-06    8  7  7  6
 -1.257777985490e-04    8  7  7  7
  1.653843809441e-09    8  7  8  1
 -6.453021813945e-11    8  7  8  2
 -3.372766550660e-06    8  7  8  3
 -2.933747307228e-12    8  7  8  4
 -4.272484093272e-07    8  7  8  5
  1.349001945836e-08    8  7  8  6
  1.834153875459e-07    8  7  8  7
  9.618527069664e-02    8  8  1  1
 -3.837593799442e-05    8  8  2  1
  7.467761808341e-02    8  8  2  2
 -9.461003924954e-06    8  8  3  1
  5.767040058044e-07    8  8  3  2
  2.914841822043e-01    8  8  3  3
 -8.046277456300e-07    8  8  4  1
  4.083533527861e-06    8  8  4  2
  9.051971130547e-08    8  8  4  3
  5.750187739314e-02    8  8  4  4
 -2.909101903943e-05    8  8  5  1
  1.622354277237e-06    8  8  5  2
  4.823987548375e-04    8  8  5  3
  1.848372791454e-08    8  8  5  4
  1.846171094688e-01    8  8  5  5
  3.251768642963e-05    8  8  6  1
 -1.023452454722e-05    8  8  6  2
 -8.077426067614e-05    8  8  6  3
 -1.493393238217e-07    8  8  6  4
 -2.050555037522e-04    8  8  6  5
  1.190138686383e-01    8  8  6  6
  2.956214300334e-05    8  8  7  1
 -2.503297795952e-06    8  8  7  2
 -6.151504142090e-04    8  8  7  3
 -8.932441407552e-08    8  8  7  4
 -1.315463598354e-03    8  8  7  5
  7.213595551713e-05    8  8  7  6
  1.559838389767e-01    8  8  7  7
 -1.626246261109e-06    8  8  8  1
  1.310579187129e-07    8  8  8  2
  2.325456534471e-03    8  8  8  3
 -6.235232684797e-08    8  8  8  4
  2.703612684339e-04    8  8  8  5
 -1.471313543832e-05    8  8  8  6
 -5.250404500768e-05    8  8  8  7
  9.002103434533e-01    8  8  8  8
 -4.486287888387e-06    9  1  1  1
  1.214509549416e-07    9  1  2  1
  2.614069682770e-06    9  1  2  2
 -9.174252349959e-12    9  1  3  1
 -7.110963317501e-12    9  1  3  2
 -1.077447468719e-07    9  1  3  3
  1.489658309976e-09    9  1  4  1
 -6.277253925464e-09    9  1  4  2
 -1.936807694420e-12    9  1  4  3
  5.343340131468e-06    9  1  4  4
  9.223248006372e-10    9  1  5  1
 -6.743548069749e-11    9  1  5  2
 -7.014253546607e-10    9  1  5  3
 -2.431751705319e-07    9  1  5  5
  1.291742557765e-07    9  1  6  1
  1.346938188702e-10    9  1  6  2
  1.541969953774e-09    9  1  6  3
  2.672341748665e-11    9  1  6  4
  1.302420960037e-08    9  1  6  5
 -1.630238261260e-06    9  1  6  6
  1.633252403389e-09    9  1  7  1
  1.818405470662e-10    9  1  7  2
  1.914458820939e-09    9  1  7  3
  4.820239172445e-12    9  1  7  4
  1.564491172230e-08    9  1  7  5
 -1.687321659903e-08    9  1  7  6
 -4.047169255903e-07    9  1  7  7
  2.009201038260e-12    9  1  8  1
 -9.284723258709e-11    9  1  8  3
 -6.662970499940e-11    9  1  8  5
  5.011903520838e-11    9  1  8  6
  4.560350227302e-11    9  1  8  7
 -3.730104467815e-08    9  1  8  8
  2.941930099679e-10    9  1  9  1
  1.833569623758e-05    9  2  1  1
 -1.318309012946e-08    9  2  2  1
  1.256509529904e-04    9  2  2  2
 -1.508341276528e-09    9  2  3  1
  1.497780676608e-10    9  2  3  2
  8.470465102709e-07    9  2  3  3
 -1.428767584465e-09    9  2  4  1
  9.167110063005e-07    9  2  4  2
  5.197480837537e-11    9  2  4  3
 -1.553845807519e-04    9  2  4  4
 -1.424215165856e-08    9  2  5  1
  2.710230308633e-09    9  2  5  2
  2.313778222714e-09    9  2  5  3
 -5.646353242728e-12    9  2  5  4
  1.629388837026e-06    9  2  5  5
  1.337866833359e-07    9  2  6  1
 -3.103835847297e-08    9  2  6  2
 -2.862337923923e-09    9  2  6  3
 -2.967978716116e-10    9  2  6  4
 -2.240226594450e-08    9  2  6  5
  5.588561932402e-06    9  2  6  6
  2.960898083435e-08    9  2  7  1
 -1.935348197507e-10    9  2  7  2
 -6.652161256803e-09    9  2  7  3
 -2.688348062691e-11    9  2  7  4
 -4.522772277686e-08    9  2  7  5
  1.765077937392e-08    9  2  7  6
  2.352138957106e-06    9  2  7  7
 -4.764173405206e-11    9  2  8  1
  3.503509102126e-10    9  2  8  3
 -1.171934085915e-11    9  2  8  4
  2.789472675483e-10    9  2  8  5
 -1.010877808102e-10    9  2  8  6
 -1.607051994188e-10    9  2  8  7
  3.247390354375e-07    9  2  8  8
 -4.538382573797e-09    9  2  9  1
  1.833468922764e-07    9  2  9  2
  7.717969340206e-11    9  3  1  1
 -8.514247179795e-12    9  3  2  1
 -2.077344964619e-09    9  3  2  2
 -2.912395564406e-12    9  3  3  1
  2.716336218900e-08    9  3  3  3
 -5.430364465797e-12    9  3  4  2
 -1.131431865670e-08    9  3  4  4
 -4.564495418955e-12    9  3  5  1
  3.160980171690e-10    9  3  5  3
  4.494473555691e-09    9  3  5  5
  6.450426708542e-11    9  3  6  1
 -3.009873357879e-12    9  3  6  2
 -2.988032128392e-11    9  3  6  3
 -4.216101759453e-11    9  3  6  5
  2.116672577430e-09    9  3  6  6
  9.010686667666e-12    9  3  7  1
 -2.484683407586e-10    9  3  7  3
 -2.009061426221e-10    9  3  7  5
  7.444415856652e-11    9  3  7  6
  3.112674138554e-09    9  3  7  7
  8.894709458527e-12    9  3  8  3
 -9.606414627969e-12    9  3  8  5
  1.632376581793e-12    9  3  8  7
  5.149062711124e-09    9  3  8  8
 -8.381204688972e-12    9  3  9  2
 -2.769567102739e-04    9  4  1  1
  7.026538766213e-07    9  4  2  1
 -5.487243147073e-04    9  4  2  2
  6.070504695604e-09    9  4  3  1
 -7.717256221717e-10    9  4  3  2
 -9.097151986173e-05    9  4  3  3
  1.749150732572e-06    9  4  4  1
 -4.280938422707e-05    9  4  4  2
  2.270864669203e-09    9  4  4  3
 -1.057122989043e-02    9  4  4  4
  4.867552892185e-08    9  4  5  1
 -6.133453343989e-09    9  4  5  2
 -3.283996152650e-08    9  4  5  3
 -1.041566492039e-08    9  4  5  4
 -1.182865634133e-04    9  4  5  5
 -1.592418711747e-07    9  4  6  1
  1.095514745819e-07    9  4  6  2
  2.621191281215e-08    9  4  6  3
  2.033537480526e-07    9  4  6  4
  1.734600286250e-07    9  4  6  5
 -1.891265919374e-04    9  4  6  6
 -7.164140718186e-08    9  4  7  1
  1.393715608693e-08    9  4  7  2
  9.752295724799e-08    9  4  7  3
  2.492795600102e-08    9  4  7  4
  5.402109575545e-07    9  4  7  5
 -8.221930232467e-08    9  4  7  6
 -1.367458359171e-04    9  4  7  7
  1.813344193987e-10    9  4  8  1
  9.396709989466e-12    9  4  8  2
  2.554494638765e-08    9  4  8  3
 -9.426524322077e-10    9  4  8  4
 -1.173495472677e-09    9  4  8  5
  9.116980170573e-10    9  4  8  6
  2.194828879709e-09    9  4  8  7
 -6.239215285308e-05    9  4  8  8
 -3.918037154440e-07    9  4  9  1
  9.841641628388e-06    9  4  9  2
 -7.506199441294e-10    9  4  9  3
  1.503535627873e-03    9  4  9  4
 -6.759730512766e-09    9  5  1  1
 -1.056753708103e-10    9  5  2  1
 -7.574438009241e-09    9  5  2  2
 -1.557431584750e-12    9  5  3  1
  1.726464679300e-08    9  5  3  3
 -1.351844552660e-12    9  5  4  1
  3.265998622689e-11    9  5  4  2
 -3.007220707247e-08    9  5  4  4
 -1.176269257987e-10    9  5  5  1
  5.083162051581e-12    9  5  5  2
 -1.121638419959e-09    9  5  5  3
  3.939032703990e-08    9  5  5  5
  4.400556437497e-10    9  5  6  1
 -1.953469340563e-11    9  5  6  2
 -1.514029927644e-11    9  5  6  3
 -1.136056715873e-09    9  5  6  5
 -4.653567132340e-09    9  5  6  6
  1.277326747102e-10    9  5  7  1
 -5.251903789435e-12    9  5  7  2
  4.221774643055e-10    9  5  7  3
 -8.051575644814e-09    9  5  7  5
  1.438475320952e-09    9  5  7  6
 -7.320194581896e-09    9  5  7  7
  6.949298139062e-11    9  5  8  3
  1.452840335050e-12    9  5  8  5
  2.555677897077e-12    9  5  8  7
  3.115542294916e-09    9  5  8  8
 -1.223525581531e-12    9  5  9  1
  2.909409505466e-11    9  5  9  2
  2.538560825899e-09    9  5  9  4
  3.847873209962e-07    9  6  1  1
  7.706644409708e-10    9  6  2  1
  2.608756901132e-07    9  6  2  2
 -9.717618958014e-12    9  6  3  1
 -2.002049518385e-12    9  6  3  2
 -4.695159265109e-08    9  6  3  3
  1.987991415183e-11    9  6  4  1
 -6.165283768339e-10    9  6  4  2
  6.626101220552e-07    9  6  4  4
 -2.650529218575e-10    9  6  5  1
 -1.253859545407e-11    9  6  5  2
 -9.429743291942e-10    9  6  5  3
 -1.412094842986e-07    9  6  5  5
 -3.653500566374e-08    9  6  6  1
  2.111357782314e-09    9  6  6  2
  3.518560020832e-10    9  6  6  3
  2.539055844950e-11    9  6  6  4
  1.388907664952e-09    9  6  6  5
 -8.665050128621e-07    9  6  6  6
  8.205256647365e-10    9  6  7  1
  2.111304441921e-11    9  6  7  2
  2.320735219990e-09    9  6  7  3
  2.353684249866e-08    9  6  7  5
  1.633322595068e-08    9  6  7  6
 -3.001498430849e-07    9  6  7  7
 -7.489441498472e-11    9  6  8  3
 -6.396988604345e-11    9  6  8  5
  1.677081490935e-11    9  6  8  6
  5.588497809544e-11    9  6  8  7
 -1.378299136451e-08    9  6  8  8
  2.403811764712e-11    9  6  9  1
 -5.992354308638e-10    9  6  9  2
 -4.761663377668e-08    9  6  9  4
  5.504939596408e-12    9  6  9  6
  3.086877008069e-08    9  7  1  1
  2.787875142154e-10    9  7  2  1
  3.342077639350e-08    9  7  2  2
  4.888261664796e-12    9  7  3  1
 -2.176497932104e-08    9  7  3  3
  4.221799052714e-12    9  7  4  1
 -5.982045869304e-11    9  7  4  2
  7.431668593677e-08    9  7  4  4
  1.273560799582e-10    9  7  5  1
 -6.636674499894e-12    9  7  5  2
 -8.072260555304e-10    9  7  5  3
 -1.042005800988e-07    9  7  5  5
 -1.512506476515e-09    9  7  6  1