 &FCI NORB=10 ,NELEC=10 ,MS2=0,
  ORBSYM=1,1,1,1,1,1,1,1,1,1,
  ISYM=1,
 &END
  8.662545644710e-01    1  1  1  1
  2.543887821481e-03    2  1  1  1
  3.171600661035e-04    2  1  2  1
  2.259724880462e-01    2  2  1  1
  2.545193995971e-03    2  2  2  1
  8.661376573999e-01    2  2  2  2
  2.343250518856e-04    3  1  1  1
 -8.726332323265e-07    3  1  2  1
  4.159527294415e-05    3  1  2  2
  6.930235188339e-07    3  1  3  1
 -5.825953125433e-06    3  2  1  1
  3.806137612626e-07    3  2  2  1
  1.362862280896e-05    3  2  2  2
  1.969063530911e-08    3  2  3  1
  1.811560293879e-09    3  2  3  2
  1.133263809588e-01    3  3  1  1
  1.114866889815e-04    3  3  2  1
  7.564420510123e-02    3  3  2  2
  2.350116071651e-04    3  3  3  1
  1.346439778445e-05    3  3  3  2
  8.638681137975e-01    3  3  3  3
 -5.093001822189e-05    4  1  1  1
  1.524938701974e-07    4  1  2  1
 -9.032062779987e-06    4  1  2  2
 -8.646152098269e-08    4  1  3  1
 -1.222599868416e-09    4  1  3  2
  2.409004762655e-05    4  1  3  3
  3.004721049473e-08    4  1  4  1
  9.634156927125e-07    4  2  1  1
 -8.125660146951e-08    4  2  2  1
 -3.667443216729e-06    4  2  2  2
 -1.299670433949e-09    4  2  3  1
 -2.424774212208e-10    4  2  3  2
  1.236093233283e-06    4  2  3  3
  8.823564780311e-10    4  2  4  1
  8.456532327159e-11    4  2  4  2
 -2.570640618936e-04    4  3  1  1
 -1.297093406741e-06    4  3  2  1
 -5.386200759623e-05    4  3  2  2
  5.837207343798e-06    4  3  3  1
  2.602906118121e-07    4  3  3  2
 -8.603630637254e-03    4  3  3  3
  7.216252659048e-06    4  3  4  1
  3.647003700807e-07    4  3  4  2
  7.912435523632e-03    4  3  4  3
  8.991847161862e-02    4  4  1  1
  6.146980081258e-05    4  4  2  1
  6.443819481906e-02    4  4  2  2
  1.236628257490e-04    4  4  3  1
  6.879935059033e-06    4  4  3  2
  4.117905219883e-01    4  4  3  3
 -4.850945134783e-05    4  4  4  1
 -2.104830308583e-06    4  4  4  2
 -1.038601427140e-02    4  4  4  3
  8.158156568762e-01    4  4  4  4
 -9.016612449096e-04    5  1  1  1
  5.490205180125e-06    5  1  2  1
 -1.671048328515e-04    5  1  2  2
 -1.941526280829e-06    5  1  3  1
 -2.963953841331e-08    5  1  3  2
 -5.371153754861e-04    5  1  3  3
  3.443205199359e-07    5  1  4  1
  3.839060316825e-09    5  1  4  2
  2.146411104613e-05    5  1  4  3
 -1.598648257831e-04    5  1  4  4
  1.439783315129e-05    5  1  5  1
  3.159017383108e-05    5  2  1  1
 -1.684637605229e-06    5  2  2  1
 -5.295595053901e-05    5  2  2  2
 -2.332959514765e-08    5  2  3  1
 -4.901773695890e-09    5  2  3  2
 -3.222961847284e-05    5  2  3  3
  2.469600338289e-09    5  2  4  1
  9.446312831508e-10    5  2  4  2
  1.181699200697e-06    5  2  4  3
 -1.053459571163e-05    5  2  4  4
  3.860291430821e-07    5  2  5  1
  3.496276807261e-08    5  2  5  2
 -9.563344896856e-04    5  3  1  1
 -5.195415074643e-06    5  3  2  1
 -2.374171472052e-04    5  3  2  2
 -3.357179621880e-05    5  3  3  1
 -1.757394027285e-06    5  3  3  2
 -1.205671375919e-02    5  3  3  3
  1.881834640475e-06    5  3  4  1
  1.002174189598e-07    5  3  4  2
 -1.288608159801e-03    5  3  4  3
 -9.824278111498e-03    5  3  4  4
 -3.048814210628e-05    5  3  5  1
 -8.999023391698e-07    5  3  5  2
  8.546896428955e-03    5  3  5  3
  1.728764496015e-04    5  4  1  1
  9.543134087074e-07    5  4  2  1
  3.941868527348e-05    5  4  2  2
 -2.609078015576e-07    5  4  3  1
 -7.471979625613e-09    5  4  3  2
 -4.982211359320e-03    5  4  3  3
 -1.569100692897e-06    5  4  4  1
 -7.960726234954e-08    5  4  4  2
 -7.955541822550e-04    5  4  4  3
  2.168242453085e-03    5  4  4  4
  5.572972123563e-06    5  4  5  1
  1.730956083786e-07    5  4  5  2
 -7.432228038325e-04    5  4  5  3
  2.857692556045e-04    5  4  5  4
  1.510287934510e-01    5  5  1  1
  2.293274096588e-04    5  5  2  1
  9.076836438649e-02    5  5  2  2
 -1.296611513998e-04    5  5  3  1
 -4.001339840987e-06    5  5  3  2
  4.252808131341e-01    5  5  3  3
  3.075018856310e-05    5  5  4  1
  1.290475827878e-06    5  5  4  2
 -8.721902569268e-03    5  5  4  3
  2.210885829050e-01    5  5  4  4
 -9.011456634402e-04    5  5  5  1
 -6.043586490515e-05    5  5  5  2
 -1.193884526320e-02    5  5  5  3
  2.028057928875e-03    5  5  5  4
  8.661381290467e-01    5  5  5  5
 -2.092978352069e-04    6  1  1  1
 -6.851490101380e-06    6  1  2  1
  1.775230185352e-04    6  1  2  2
 -1.765797243732e-08    6  1  3  1
 -1.209514815821e-09    6  1  3  2
 -7.738323396057e-06    6  1  3  3
  4.916811486542e-09    6  1  4  1
  6.672048074890e-11    6  1  4  2
  7.944476324538e-08    6  1  4  3
 -4.381682014573e-06    6  1  4  4
  2.899666654584e-09    6  1  5  1
  5.961959176126e-09    6  1  5  2
  3.021381930401e-07    6  1  5  3
 -5.589065580738e-08    6  1  5  4
 -1.516257391813e-05    6  1  5  5
  6.058960079737e-07    6  1  6  1
 -4.872580310463e-04    6  2  1  1
  4.073933405085e-05    6  2  2  1
 -2.027038570686e-03    6  2  2  2
 -2.267181357587e-07    6  2  3  1
  3.638844524570e-08    6  2  3  2
 -2.189445995293e-05    6  2  3  3
  4.777447863480e-08    6  2  4  1
 -5.882802116021e-09    6  2  4  2
  1.716086857728e-07    6  2  4  3
 -1.257075224600e-05    6  2  4  4
  9.617822722067e-07    6  2  5  1
 -1.941377325657e-07    6  2  5  2
  5.392651774170e-07    6  2  5  3
 -1.027115180254e-07    6  2  5  4
 -3.937649537165e-05    6  2  5  5
  7.083221402688e-06    6  2  6  1
  2.857737847951e-04    6  2  6  2
  1.776676178959e-07    6  3  1  1
 -4.318031698399e-09    6  3  2  1
  1.796512902940e-07    6  3  2  2
 -8.678494703505e-10    6  3  3  1
 -4.570891687090e-11    6  3  3  2
 -3.606944062801e-07    6  3  3  3
  7.029544027899e-11    6  3  4  1
  3.731568531022e-12    6  3  4  2
 -1.583930818241e-08    6  3  4  3
 -2.005476233061e-07    6  3  4  4
  1.261809226604e-09    6  3  5  1
  6.793855461885e-11    6  3  5  2
  8.027035250217e-08    6  3  5  3
 -1.530057406722e-09    6  3  5  4
  2.914006950710e-07    6  3  5  5
  1.026926987938e-09    6  3  6  1
  1.952681692411e-08    6  3  6  2
  4.776373603267e-12    6  3  6  3
 -3.024809616325e-08    6  4  1  1
  8.044040422009e-10    6  4  2  1
 -3.118151973316e-08    6  4  2  2
  5.513330774148e-11    6  4  3  1
  2.893415014269e-12    6  4  3  2
 -9.208890589109e-08    6  4  3  3
 -3.560339288651e-11    6  4  4  1
 -1.806100665209e-12    6  4  4  2
 -1.359724367665e-08    6  4  4  3
  2.865247126469e-08    6  4  4  4
 -1.659174580841e-10    6  4  5  1
 -8.718821888220e-12    6  4  5  2
 -4.520819875674e-09    6  4  5  3
  3.328338533433e-09    6  4  5  4
 -7.461374320602e-08    6  4  5  5
 -2.028135475557e-10    6  4  6  1
 -3.714757422504e-09    6  4  6  2
 -9.481332271547e-07    6  5  1  1
  1.768638807875e-08    6  5  2  1
 -1.223438739191e-06    6  5  2  2
  1.131583767424e-09    6  5  3  1
  6.945361198976e-11    6  5  3  2
  1.623260356338e-06    6  5  3  3
 -1.289234146634e-10    6  5  4  1
 -7.330214195633e-12    6  5  4  2
 -5.806241029323e-08    6  5  4  3
  5.459669479826e-07    6  5  4  4
 -1.841814375150e-08    6  5  5  1
 -9.618451408968e-10    6  5  5  2
  3.884871900977e-08    6  5  5  3
 -7.289178386817e-09    6  5  5  4
  3.097619584981e-06    6  5  5  5
 -3.981070204257e-09    6  5  6  1
 -7.833588157415e-08    6  5  6  2
 -1.268114993926e-11    6  5  6  3
  2.316028894333e-12    6  5  6  4
  8.222559432379e-11    6  5  6  5
  1.120745870126e-01    6  6  1  1
  5.716496029815e-04    6  6  2  1
  2.210893304794e-01    6  6  2  2
  9.064713996596e-06    6  6  3  1
  2.386649343528e-06    6  6  3  2
  5.642454821469e-02    6  6  3  3
 -2.018996135929e-06    6  6  4  1
 -6.643899081785e-07    6  6  4  2
 -9.866328926974e-06    6  6  4  3
  4.994176812346e-02    6  6  4  4
 -3.405636972197e-05    6  6  5  1
 -9.022564370592e-06    6  6  5  2
 -9.016465373589e-05    6  6  5  3
  1.259402220986e-05    6  6  5  4
  6.443826653635e-02    6  6  5  5
 -2.043764531451e-04    6  6  6  1
 -2.169177007036e-03    6  6  6  2
 -9.837203904770e-07    6  6  6  3
  2.468453695428e-07    6  6  6  4
  2.636125953586e-06    6  6  6  5
  8.158164680920e-01    6  6  6  6
  1.213766376539e-02    7  1  1  1
  8.256828342005e-04    7  1  2  1
  1.038854969712e-02    7  1  2  2
 -4.871415620056e-06    7  1  3  1
  5.306482774409e-07    7  1  3  2
  4.503485697945e-04    7  1  3  3
  8.624006510646e-07    7  1  4  1
 -1.202159929585e-07    7  1  4  2
 -5.896893181474e-06    7  1  4  3
  2.390922439110e-04    7  1  4  4
  3.024383362571e-05    7  1  5  1
 -2.150860595033e-06    7  1  5  2
 -2.454525430116e-05    7  1  5  3
  4.489430251285e-06    7  1  5  4
  9.748653069972e-04    7  1  5  5
 -3.036267438712e-05    7  1  6  1
 -8.949152122566e-05    7  1  6  2
 -1.599857000800e-08    7  1  6  3
  3.407873869669e-09    7  1  6  4
  6.409483054305e-08    7  1  6  5
  9.382417190811e-04    7  1  6  6
  8.578377856605e-03    7  1  7  1
  1.038239785250e-02    7  2  1  1
  8.260716351031e-04    7  2  2  1
  1.213815194821e-02    7  2  2  2
  5.701009074963e-06    7  2  3  1
  1.709390430929e-06    7  2  3  2
  2.443154628375e-04    7  2  3  3
 -1.186340661508e-06    7  2  4  1
 -3.686244430360e-07    7  2  4  2
 -2.133160322398e-06    7  2  4  3
  1.444548174819e-04    7  2  4  4
 -2.452865243489e-05    7  2  5  1
 -7.608407178079e-06    7  2  5  2
 -7.501583611725e-06    7  2  5  3
  1.404735502338e-06    7  2  5  4
  4.500924369175e-04    7  2  5  5
 -7.849762571728e-06    7  2  6  1
  2.225930598323e-04    7  2  6  2
 -1.526622144660e-08    7  2  6  3
  2.698206470799e-09    7  2  6  4
  6.249424561628e-08    7  2  6  5
  2.603722206492e-03    7  2  6  6
 -1.265789752331e-03    7  2  7  1
  8.576949435603e-03    7  2  7  2
 -2.178569928796e-05    7  3  1  1
 -3.135809061545e-09    7  3  2  1
  3.028683977140e-05    7  3  2  2
  9.673498258846e-08    7  3  3  1
  5.020654282641e-09    7  3  3  2
  5.651587453462e-05    7  3  3  3
 -7.495491435022e-09    7  3  4  1
 -4.340623562757e-10    7  3  4  2
  1.170574021532e-06    7  3  4  3
  2.913395338286e-05    7  3  4  4
 -1.787410039712e-07    7  3  5  1
 -8.364487742709e-09    7  3  5  2
 -7.578138448823e-06    7  3  5  3
 -4.392937672127e-08    7  3  5  4
 -2.184861464232e-05    7  3  5  5
  3.929582669948e-09    7  3  6  1
 -2.147689761834e-07    7  3  6  2
 -1.967063523641e-10    7  3  6  3
  1.296481501633e-11    7  3  6  4
  2.909141928369e-10    7  3  6  5
  4.277971711537e-06    7  3  6  6
  7.573068337385e-06    7  3  7  1
 -9.427269349026e-07    7  3  7  2
  3.456524242345e-08    7  3  7  3
  3.754192286468e-06    7  4  1  1
  1.237501514297e-09    7  4  2  1
 -6.486564897926e-06    7  4  2  2
 -8.095217714361e-09    7  4  3  1
 -4.183769545856e-10    7  4  3  2
  4.526623287759e-06    7  4  3  3
  4.422004308649e-09    7  4  4  1
  2.299303944578e-10    7  4  4  2
  1.624494590433e-06    7  4  4  3
 -1.174873406419e-05    7  4  4  4
  2.665002517214e-08    7  4  5  1
  1.210110757355e-09    7  4  5  2
  4.540422215050e-07    7  4  5  3
 -3.532693625529e-07    7  4  5  4
  5.831359344810e-06    7  4  5  5
 -7.430162850807e-10    7  4  6  1
  4.495625540815e-08    7  4  6  2
  1.703225220845e-11    7  4  6  3
 -8.172864832548e-12    7  4  6  4
 -3.672294255962e-11    7  4  6  5
 -9.408449271734e-07    7  4  6  6
 -1.556064427143e-06    7  4  7  1
  1.667254860305e-07    7  4  7  2
 -4.442110714580e-09    7  4  7  3
  1.550779524525e-09    7  4  7  4
  1.279759050412e-04    7  5  1  1
  1.534089802183e-07    7  5  2  1
 -1.317027600524e-04    7  5  2  2
 -1.583407365150e-07    7  5  3  1
 -9.194334148673e-09    7  5  3  2
 -1.283988989995e-04    7  5  3  3
  2.164623315518e-08    7  5  4  1
  1.492682033162e-09    7  5  4  2
  4.969565420646e-06    7  5  4  3
 -3.959907208696e-05    7  5  4  4
  1.951925649199e-06    7  5  5  1
  9.730139060480e-08    7  5  5  2
 -4.996458024590e-06    7  5  5  3
  9.401998776493e-07    7  5  5  4
 -2.327630343416e-04    7  5  5  5
 -2.691263031325e-08    7  5  6  1
  9.557936375132e-07    7  5  6  2
  2.892505962175e-10    7  5  6  3
 -4.017636692800e-11    7  5  6  4
 -4.149304859296e-09    7  5  6  5
 -1.774447161914e-05    7  5  6  6
 -3.367527182368e-05    7  5  7  1
  4.872934541370e-06    7  5  7  2
 -9.705815032354e-08    7  5  7  3
  1.771147382486e-08    7  5  7  4
  6.984024418358e-07    7  5  7  5
 -4.728571046181e-04    7  6  1  1
  1.356065458960e-06    7  6  2  1
  8.495647820370e-04    7  6  2  2
 -2.387811282015e-07    7  6  3  1
  8.758462731595e-09    7  6  3  2
 -1.516490326938e-05    7  6  3  3
  4.992551459298e-08    7  6  4  1
 -2.649215002591e-09    7  6  4  2
  1.221501328490e-07    7  6  4  3
 -8.979460225443e-06    7  6  4  4
  1.019175192304e-06    7  6  5  1
 -3.362589830293e-08    7  6  5  2
  4.105823281454e-07    7  6  5  3
 -7.735447890688e-08    7  6  5  4
 -2.731703119616e-05    7  6  5  5
  1.765884733580e-06    7  6  6  1
  3.754710175496e-05    7  6  6  2
  4.498101179574e-09    7  6  6  3
 -8.866229282926e-10    7  6  6  4
 -1.775655919740e-08    7  6  6  5
 -7.803901431706e-04    7  6  6  6
  2.861929110003e-05    7  6  7  1
 -1.324318182387e-04    7  6  7  2
 -4.975591571167e-09    7  6  7  3
  2.022485553932e-09    7  6  7  4
 -1.747787002514e-09    7  6  7  5
  1.266340558414e-05    7  6  7  6
  4.259247946144e-01    7  7  1  1
 -4.906387843467e-03    7  7  2  1
  4.258948806115e-01    7  7  2  2
  1.291489945854e-04    7  7  3  1
 -3.927031034369e-06    7  7  3  2
  9.073042358870e-02    7  7  3  3
 -2.744606835466e-05    7  7  4  1
  3.829729287737e-07    7  7  4  2
 -1.145257454154e-04    7  7  4  3
  7.507661844417e-02    7  7  4  4
 -5.384161759464e-04    7  7  5  1
  2.320707274557e-05    7  7  5  2
 -4.395629267949e-04    7  7  5  3
  7.704775602448e-05    7  7  5  4
  1.133871669828e-01    7  7  5  5
  1.246185657068e-04    7  7  6  1
 -1.776354339640e-03    7  7  6  2
  1.719123310756e-07    7  7  6  3
 -2.735852370369e-08    7  7  6  4
 -9.951845089398e-07    7  7  6  5
  1.487458431875e-01    7  7  6  6
  1.213797287027e-02    7  7  7  1
  1.212278877519e-02    7  7  7  2
  5.607596429722e-05    7  7  7  3
 -1.215834758938e-05    7  7  7  4
 -2.397856100505e-04    7  7  7  5
 -7.829428919297e-04    7  7  7  6
  8.662487674415e-01    7  7  7  7
  8.937114936137e-04    8  1  1  1
  4.028368341733e-05    8  1  2  1
 -8.692066185114e-04    8  1  2  2
  7.526962451890e-09    8  1  3  1
  1.679272898791e-08    8  1  3  2
  3.440518923404e-05    8  1  3  3
 -7.718215819430e-09    8  1  4  1
 -2.433146682273e-09    8  1  4  2
 -3.575900878118e-07    8  1  4  3
  1.958686315275e-05    8  1  4  4
  3.320858397479e-07    8  1  5  1
 -7.909612488389e-08    8  1  5  2
 -1.381228278301e-06    8  1  5  3
  2.549163819855e-07    8  1  5  4
  6.765936545097e-05    8  1  5  5
 -1.744357389136e-06    8  1  6  1
  1.700992720126e-06    8  1  6  2
 -1.618862045465e-09    8  1  6  3
  4.004933621678e-10    8  1  6  4
  6.095681990874e-09    8  1  6  5
  5.107253939099e-04    8  1  6  6
  1.462272817143e-04    8  1  7  1
  6.158962457611e-05    8  1  7  2
 -3.739715498870e-08    8  1  7  3
  7.578423973692e-09    8  1  7  4
  2.099038713426e-07    8  1  7  5
 -2.291684267586e-06    8  1  7  6
 -8.678181446510e-04    8  1  7  7
  1.430806821168e-05    8  1  8  1
  2.699809859210e-03    8  2  1  1
 -2.313883479973e-04    8  2  2  1
  1.193910932544e-02    8  2  2  2
  1.274366461072e-06    8  2  3  1
 -1.865628063199e-07    8  2  3  2
  1.422545852574e-04    8  2  3  3
 -2.678851222244e-07    8  2  4  1
  3.302521448430e-08    8  2  4  2
 -8.873370440978e-07    8  2  4  3
  9.016721567204e-05    8  2  4  4
 -5.423513167298e-06    8  2  5  1
  1.025278500700e-06    8  2  5  2
 -2.853505774826e-06    8  2  5  3
  5.395024259411e-07    8  2  5  4
  2.374222919524e-04    8  2  5  5
 -7.627178438103e-06    8  2  6  1
 -7.432350349804e-04    8  2  6  2
 -2.816655057954e-08    8  2  6  3
  8.504551928623e-09    8  2  6  4
  1.008785765098e-07    8  2  6  5
  9.824292145119e-03    8  2  6  6
  5.526719147970e-04    8  2  7  1
 -1.267351543418e-03    8  2  7  2
  1.290711218036e-06    8  2  7  3
 -2.690389985436e-07    8  2  7  4
 -5.754578643533e-06    8  2  7  5
 -5.424056046682e-05    8  2  7  6
  1.029621103923e-02    8  2  7  7
  1.469833139259e-04    8  2  8  1
  8.546889905469e-03    8  2  8  2
 -9.989662119130e-07    8  3  1  1
  3.253586324009e-08    8  3  2  1
 -6.528206516490e-07    8  3  2  2
  4.450464916120e-09    8  3  3  1
  2.632990147727e-10    8  3  3  2
  3.017073559631e-06    8  3  3  3
 -2.981295638139e-10    8  3  4  1
 -2.139562464508e-11    8  3  4  2
  4.819314060200e-08    8  3  4  3
  1.546072944549e-06    8  3  4  4
 -6.874401922395e-09    8  3  5  1
 -4.931947187780e-10    8  3  5  2
 -3.919289333185e-07    8  3  5  3
 -3.166954521474e-10    8  3  5  4
 -8.360296151529e-07    8  3  5  5
 -1.074482535428e-09    8  3  6  1
  3.734078432856e-09    8  3  6  2
 -1.208421483766e-11    8  3  6  3
  1.246334597666e-12    8  3  6  4
  2.176117809966e-11    8  3  6  5
  1.728554891050e-06    8  3  6  6
  7.074832136136e-08    8  3  7  1
  1.238615539793e-07    8  3  7  2
  1.009841580910e-09    8  3  7  3
 -7.330667566827e-11    8  3  7  4
 -1.558373807208e-09    8  3  7  5
 -2.899985753665e-09    8  3  7  6
 -1.130900904842e-06    8  3  7  7
  2.006238801419e-08    8  3  8  1
  3.952942298957e-07    8  3  8  2
  9.536659064467e-11    8  3  8  3
  2.430164887505e-07    8  4  1  1
 -4.570407653785e-09    8  4  2  1
  4.614139001827e-07    8  4  2  2
 -4.265503220819e-10    8  4  3  1
 -2.312431032888e-11    8  4  3  2
 -1.382204131460e-07    8  4  3  3
  2.520908217419e-10    8  4  4  1
  1.184395748120e-11    8  4  4  2
  9.356502783118e-08    8  4  4  3
 -1.371910555531e-06    8  4  4  4
  9.994870064534e-10    8  4  5  1
  5.843452750084e-11    8  4  5  2
  3.418743712048e-08    8  4  5  3
 -2.033415947907e-08    8  4  5  4
  1.087378083171e-07    8  4  5  5
  3.698974808366e-10    8  4  6  1
  4.866005780150e-09    8  4  6  2
  1.584582759791e-12    8  4  6  3
 -4.921307495262e-12    8  4  6  5
 -2.179047106878e-08    8  4  6  6
 -1.301257924167e-08    8  4  7  1
 -1.490059259476e-08    8  4  7  2
 -9.457941525750e-11    8  4  7  3
  5.744258918827e-11    8  4  7  4
  2.147213705322e-10    8  4  7  5
  1.536145001485e-09    8  4  7  6
  3.539046234600e-07    8  4  7  7
 -3.462126394755e-09    8  4  8  1
 -7.910428953161e-08    8  4  8  2
 -1.156497852075e-11    8  4  8  3
  5.823768337533e-12    8  4  8  4
  5.422939923498e-06    8  5  1  1
 -1.390520734889e-07    8  5  2  1
  4.274139860712e-06    8  5  2  2
 -5.494267930873e-09    8  5  3  1
 -4.623897961600e-10    8  5  3  2
 -7.372393583323e-06    8  5  3  3
  6.238050093754e-10    8  5  4  1
  6.227167839859e-11    8  5  4  2
  2.675585237486e-07    8  5  4  3
 -2.447344835900e-06    8  5  4  4
  8.711197046643e-08    8  5  5  1
  5.092737716794e-09    8  5  5  2
 -1.869006354169e-07    8  5  5  3
  3.596277967302e-08    8  5  5  4
 -1.393615169479e-05    8  5  5  5
  4.867480980513e-09    8  5  6  1
 -1.204271099475e-08    8  5  6  2
  2.291694780043e-11    8  5  6  3
 -4.376717179791e-12    8  5  6  4
 -2.407398399239e-10    8  5  6  5
 -6.670263787351e-06    8  5  6  6
 -2.765856728684e-07    8  5  7  1
 -5.332467922522e-07    8  5  7  2
 -1.389574145054e-09    8  5  7  3
  1.732894586088e-10    8  5  7  4
  1.951427563841e-08    8  5  7  5
  1.452932508412e-08    8  5  7  6
  5.958753147234e-06    8  5  7  7
 -8.588649311803e-08    8  5  8  1
 -1.674121333562e-06    8  5  8  2
 -2.608800214602e-10    8  5  8  3
  3.994767198402e-11    8  5  8  4
  1.785392746097e-09    8  5  8  5
 -6.553972883827e-04    8  6  1  1
 -8.840666221774e-05    8  6  2  1
 -8.722051241514e-03    8  6  2  2
 -2.709553133234e-07    8  6  3  1
 -2.628117779619e-07    8  6  3  2
 -2.501077506369e-05    8  6  3  3
  5.791380785035e-08    8  6  4  1
  6.482925751514e-08    8  6  4  2
  3.005372598583e-07    8  6  4  3
 -9.869878055763e-06    8  6  4  4
  1.128579148346e-06    8  6  5  1
  1.101635889465e-06    8  6  5  2
  8.873584892670e-07    8  6  5  3
 -1.716852005017e-07    8  6  5  4
 -5.386828601198e-05    8  6  5  5
  3.203231329913e-05    8  6  6  1
  7.955557109037e-04    8  6  6  2
  9.211279330251e-08    8  6  6  3
 -1.296337806256e-08    8  6  6  4
 -3.624140491373e-07    8  6  6  5
 -1.038574941234e-02    8  6  6  6
 -9.462233117626e-05    8  6  7  1
 -4.922680105966e-04    8  6  7  2
 -2.498521975674e-07    8  6  7  3
  5.353367754711e-08    8  6  7  4
  1.100181412951e-06    8  6  7  5
  1.419238849998e-04    8  6  7  6
 -2.104170049327e-03    8  6  7  7
  3.359624918013e-05    8  6  8  1
  1.288617558429e-03    8  6  8  2
  4.700706732264e-08    8  6  8  3
 -1.866915038854e-08    8  6  8  4
 -2.468316162601e-07    8  6  8  5
  7.912544545947e-03    8  6  8  6
  2.051091893868e-03    8  7  1  1
  2.149574400321e-05    8  7  2  1
 -4.913918419066e-03    8  7  2  2
  1.058719452417e-06    8  7  3  1
 -3.866531269474e-09    8  7  3  2
  6.134845903675e-05    8  7  3  3
 -2.209044724949e-07    8  7  4  1
  6.348313310579e-09    8  7  4  2
 -4.832421030147e-07    8  7  4  3
  3.715705913129e-05    8  7  4  4
 -4.528116659255e-06    8  7  5  1
 -2.182324070553e-08    8  7  5  2
 -1.660995172370e-06    8  7  5  3
  3.117273992762e-07    8  7  5  4
  1.093968407139e-04    8  7  5  5
 -3.366941221233e-06    8  7  6  1
 -1.829292049979e-05    8  7  6  2
 -7.165428221546e-09    8  7  6  3
  1.867582215566e-09    8  7  6  4
  2.826244712609e-08    8  7  6  5
  1.961259758486e-03    8  7  6  6
 -2.307500865871e-04    8  7  7  1
  8.214152201475e-04    8  7  7  2
 -1.680476799423e-07    8  7  7  3
  3.024839972695e-08    8  7  7  4
  8.724205032604e-07    8  7  7  5
 -3.649073690092e-05    8  7  7  6
  2.511344943769e-03    8  7  7  7
  4.038744420152e-05    8  7  8  1
  8.251587394887e-04    8  7  8  2
  8.690850099817e-08    8  7  8  3
 -1.646118307008e-08    8  7  8  4
 -3.780960282181e-07    8  7  8  5
  2.362127901736e-04    8  7  8  6
  3.156694715510e-04    8  7  8  7
  1.509243794842e-01    8  8  1  1
  2.065148521611e-03    8  8  2  1
  4.252808649282e-01    8  8  2  2
  1.769024937541e-05    8  8  3  1
  7.236542130231e-06    8  8  3  2
  6.483789807249e-02    8  8  3  3
 -3.905830594787e-06    8  8  4  1
 -1.875321678045e-06    8  8  4  2
 -2.500609955721e-05    8  8  4  3
  5.642450194670e-02    8  8  4  4
 -6.842183544192e-05    8  8  5  1
 -2.888252878301e-05    8  8  5  2
 -1.422509343612e-04    8  8  5  3
  2.192527549660e-05    8  8  5  4
  7.564422171839e-02    8  8  5  5
  1.367111390810e-04    8  8  6  1
  4.982277376562e-03    8  8  6  2
  3.411814677625e-08    8  8  6  3
  4.121629056017e-09    8  8  6  4
 -9.500917391453e-07    8  8  6  5
  4.117927489240e-01    8  8  6  6
  2.730107030411e-03    8  8  7  1
  1.036744905148e-02    8  8  7  2
  1.004298346434e-05    8  8  7  3
 -2.187052412139e-06    8  8  7  4
 -4.258774719703e-05    8  8  7  5
  8.839842884875e-04    8  8  7  6
  2.257539117104e-01    8  8  7  7
  8.959692215947e-04    8  8  8  1
  1.205662136690e-02    8  8  8  2
  3.439822211268e-06    8  8  8  3
  4.765317943450e-08    8  8  8  4
 -1.306450632497e-05    8  8  8  5
 -8.603871735817e-03    8  8  8  6
  2.527458468453e-03    8  8  8  7
  8.638690760935e-01    8  8  8  8
  2.545736650333e-03    9  1  1  1
 -4.216806791663e-05    9  1  2  1
  5.988545367397e-04    9  1  2  2
  7.550038302758e-06    9  1  3  1
  8.470442311466e-08    9  1  3  2
  5.978359528134e-04    9  1  3  3
 -1.529324004359e-06    9  1  4  1
 -1.824082827706e-08    9  1  4  2
 -1.856858458392e-05    9  1  4  3
  2.214888861077e-04    9  1  4  4
 -4.049697060552e-05    9  1  5  1
 -6.108155854364e-07    9  1  5  2
 -9.995353054967e-05    9  1  5  3
  1.629902730505e-05    9  1  5  4
  2.069634049477e-03    9  1  5  5
  8.145767845974e-07    9  1  6  1
 -3.784222641112e-06    9  1  6  2
 -3.950164770094e-09    9  1  6  3
  8.470956880935e-10    9  1  6  4
  2.929575181303e-08    9  1  6  5
  1.086041717314e-04    9  1  6  6
 -2.310623000675e-04    9  1  7  1
  1.005620781662e-04    9  1  7  2
  5.982301211252e-07    9  1  7  3
 -1.252701235230e-07    9  1  7  4
 -3.787766571571e-06    9  1  7  5
 -4.086876704216e-06    9  1  7  6
  2.069473572938e-03    9  1  7  7
 -5.482607829882e-06    9  1  8  1
  2.150025195086e-05    9  1  8  2
  1.964788806474e-08    9  1  8  3
 -4.144787747627e-09    9  1  8  4
 -1.396835869244e-07    9  1  8  5
 -4.272033848171e-06    9  1  8  6
  1.827171410489e-05    9  1  8  7
  2.291677909825e-04    9  1  8  8
  3.172548674788e-04    9  1  9  1
 -1.829224040395e-04    9  2  1  1
  7.593725767365e-06    9  2  2  1
  2.374968797827e-04    9  2  2  2
  2.111531155501e-08    9  2  3  1
  1.959418246466e-08    9  2  3  2
  4.171231015259e-05    9  2  3  3
 -5.388391309524e-09    9  2  4  1
 -4.311650880035e-09    9  2  4  2
 -1.091335911894e-06    9  2  4  3
  1.722150692351e-05    9  2  4  4
 -3.207406206780e-07    9  2  5  1
 -9.704978020859e-08    9  2  5  2
 -5.676557985985e-06    9  2  5  3
  9.424009633410e-07    9  2  5  4
  1.296313642940e-04    9  2  5  5
 -1.587560508629e-08    9  2  6  1
  9.264467508993e-07    9  2  6  2
 -2.146264493127e-10    9  2  6  3
  4.349688393145e-11    9  2  6  4
  1.426927609880e-09    9  2  6  5
  4.051057811850e-05    9  2  6  6
  8.963095380268e-06    9  2  7  1
  3.360045334136e-05    9  2  7  2
  2.429195456214e-08    9  2  7  3
 -5.119115341526e-09    9  2  7  4
 -1.571801478629e-07    9  2  7  5
  2.060305959752e-07    9  2  7  6
 -1.288659034881e-04    9  2  7  7
  3.142644248889e-07    9  2  8  1
 -4.914647514893e-06    9  2  8  2
  1.609749596583e-09    9  2  8  3
 -2.278428167358e-10    9  2  8  4
 -9.250350494819e-09    9  2  8  5
 -5.020042578893e-06    9  2  8  6
 -1.442571707219e-07    9  2  8  7
  1.304588526754e-04    9  2  8  8
  7.587432462624e-06    9  2  9  1
  6.975018606945e-07    9  2  9  2
  5.917217858995e-04    9  3  1  1
  4.298039727772e-06    9  3  2  1
  1.094060280646e-04    9  3  2  2
  7.576289765002e-06    9  3  3  1
  3.851247148181e-07    9  3  3  2
  2.527096799341e-03    9  3  3  3
 -5.290604940979e-07    9  3  4  1
 -2.674457931848e-08    9  3  4  2
  2.361999626981e-04    9  3  4  3
  1.961048115611e-03    9  3  4  4
  1.292507777078e-06    9  3  5  1
  3.212186047552e-08    9  3  5  2
 -8.250751184209e-04    9  3  5  3
  1.827612435584e-05    9  3  5  4
 -4.914027881370e-03    9  3  5  5
 -2.341598630406e-07    9  3  6  1
 -3.116135799753e-07    9  3  6  2
 -1.755609974673e-08    9  3  6  3
  1.213061768352e-09    9  3  6  4
 -1.340414223713e-09    9  3  6  5
  3.716234296743e-05    9  3  6  6
  2.151325537438e-05    9  3  7  1
  5.201489510281e-06    9  3  7  2
  1.685827855126e-06    9  3  7  3
 -1.227561652624e-07    9  3  7  4
  1.026550920185e-07    9  3  7  5
 -2.648810931915e-07    9  3  7  6
  2.257785524551e-04    9  3  7  7
  1.090170321991e-06    9  3  8  1
  1.661042933631e-06    9  3  8  2
  8.592508254863e-08    9  3  8  3
 -8.301067074092e-09    9  3  8  4
  5.854537139009e-09    9  3  8  5
 -4.832667455537e-07    9  3  8  6
  1.104525885806e-06    9  3  8  7
  6.135538509766e-05    9  3  8  8
 -4.212513407344e-05    9  3  9  1
 -8.796149215475e-07    9  3  9  2
  3.156511888953e-04    9  3  9  3
 -1.423800149671e-04    9  4  1  1
 -9.836282121970e-07    9  4  2  1
 -2.732620638740e-05    9  4  2  2
 -2.668338661217e-07    9  4  3  1
 -1.435824853634e-08    9  4  3  2
  8.839477485586e-04    9  4  3  3
  3.479144006667e-07    9  4  4  1
  1.753821431632e-08    9  4  4  2
  1.419116285169e-04    9  4  4  3
 -7.802360210063e-04    9  4  4  4
 -1.182651218665e-06    9  4  5  1
 -4.301032500033e-08    9  4  5  2
  5.423046108514e-05    9  4  5  3
 -3.754040630717e-05    9  4  5  4
  8.495146776447e-04    9  4  5  5
  5.429734972274e-08    9  4  6  1
  7.733313097903e-08    9  4  6  2
  1.035070656384e-09    9  4  6  3
 -7.217235858431e-10    9  4  6  4
  1.844432086168e-09    9  4  6  5
 -8.984283900312e-06    9  4  6  6
 -4.873079277059e-06    9  4  7  1
 -1.236894159883e-06    9  4  7  2
 -6.203853191325e-08    9  4  7  3
  7.895856455103e-08    9  4  7  4
 -1.987807097430e-07    9  4  7  5
  6.399188314500e-08    9  4  7  6
 -5.601906344685e-05    9  4  7  7
 -2.518281633897e-07    9  4  8  1
 -4.106262381429e-07    9  4  8  2
 -3.499197001091e-09    9  4  8  3
  4.837420433915e-09    9  4  8  4
 -9.042124935180e-09    9  4  8  5
  1.221752359753e-07    9  4  8  6
 -2.649281392809e-07    9  4  8  7
 -1.517144091400e-05    9  4  8  8
  5.206645065138e-06    9  4  9  1
  5.294176976753e-09    9  4  9  2
 -3.649140622357e-05    9  4  9  3
  1.266269885819e-05    9  4  9  4
 -2.734080344591e-03    9  5  1  1
 -2.165881563650e-05    9  5  2  1
 -4.503279867803e-04    9  5  2  2
 -8.881490572761e-06    9  5  3  1
 -5.189686777328e-07    9  5  3  2
 -1.036537192493e-02    9  5  3  3
  9.059450904099e-07    9  5  4  1
  5.806633331292e-08    9  5  4  2
  4.921895632535e-04    9  5  4  3
 -2.602945664246e-03    9  5  4  4
  1.471029599472e-04    9  5  5  1
  7.664703165972e-06    9  5  5  2
 -1.267360033826e-03    9  5  5  3
  2.225736420051e-04    9  5  5  4
 -1.213378038062e-02    9  5  5  5
  1.159969423268e-06    9  5  6  1
  1.404636857253e-06    9  5  6  2
  2.189980751279e-08    9  5  6  3
 -2.551958265740e-09    9  5  6  4
 -3.687702177278e-07    9  5  6  5
 -1.445656806719e-04    9  5  6  6
 -1.094801739844e-04    9  5  7  1
 -2.475926038798e-05    9  5  7  2
 -2.200473152804e-06    9  5  7  3
  2.463696951024e-07    9  5  7  4
  3.360811518910e-05    9  5  7  5
  1.236904343867e-06    9  5  7  6
 -9.739391993783e-04    9  5  7  7
 -5.426510056119e-06    9  5  8  1
 -7.503900718971e-06    9  5  8  2
 -1.185304132600e-07    9  5  8  3
  1.620291093055e-08    9  5  8  4
  1.718693174405e-06    9  5  8  5
  2.133824821155e-06    9  5  8  6
 -5.202552079497e-06    9  5  8  7
 -2.444719668963e-04    9  5  8  8
  2.310468780484e-04    9  5  9  1