 &FCI NORB=  10,NELEC=10,MS2=0,
  ORBSYM=1,1,1,1,1,1,1,1,1,1,
  ISYM=1,
 &END
 0.825551746268142    1    1    1    1
 -0.01124783373448244    1    1    2    1
 0.4397896355150577    1    1    2    2
 0.002051125387359468    1    1    3    1
 -0.0117022394422677    1    1    3    2
 0.2405270686734454    1    1    3    3
 -0.000957858570587015    1    1    4    1
 0.002412046340448665    1    1    4    2
 -0.00327874253393099    1    1    4    3
 0.162473622502936    1    1    4    4
 0.0002732263948134542    1    1    5    1
 -0.0007122714740850118    1    1    5    2
 0.0007401380725114573    1    1    5    3
 -0.001196881849814514    1    1    5    4
 0.1226387122911433    1    1    5    5
 -7.076011416861225e-05    1    1    6    1
 0.0001869223814871299    1    1    6    2
 -0.0002333206176415206    1    1    6    3
 0.0002882740854745887    1    1    6    4
 -0.0005598539089683716    1    1    6    5
 0.09850179110035219    1    1    6    6
 1.876086548096528e-05    1    1    7    1
 -4.766277842716044e-05    1    1    7    2
 6.333978344459399e-05    1    1    7    3
 -9.73402731282133e-05    1    1    7    4
 0.0001412337101044263    1    1    7    5
 -0.0003064546348677429    1    1    7    6
 0.08230298435283025    1    1    7    7
 -4.923549564816633e-06    1    1    8    1
 1.238818075589502e-05    1    1    8    2
 -1.665569588113099e-05    1    1    8    3
 2.739458843246411e-05    1    1    8    4
 -5.001234502502952e-05    1    1    8    5
 7.978919276863522e-05    1    1    8    6
 -0.000185239665453471    1    1    8    7
 0.07067586276446738    1    1    8    8
 1.269045106788084e-06    1    1    9    1
 -3.186353261145709e-06    1    1    9    2
 4.394115808859127e-06    1    1    9    3
 -7.329245993269896e-06    1    1    9    4
 1.42507716556631e-05    1    1    9    5
 -2.856919331521553e-05    1    1    9    6
 4.729760582484988e-05    1    1    9    7
 -0.0001130644170787968    1    1    9    8
 0.06189912096372468    1    1    9    9
 -2.899255916041467e-07    1    1   10    1
 7.226675919720197e-07    1    1   10    2
 -1.006203809041006e-06    1    1   10    3
 1.697466154724476e-06    1    1   10    4
 -3.230554863015769e-06    1    1   10    5
 6.467730809411611e-06    1    1   10    6
 -1.157364241378018e-05    1    1   10    7
 1.06208598380475e-05    1    1   10    8
 4.600499220501958e-06    1    1   10    9
 0.05470478161650588    1    1   10   10
 -0.01124783373448302    2    1    1    1
 0.009260293018316514    2    1    2    1
 -0.00865345559424514    2    1    2    2
 -0.001014003335612245    2    1    3    1
 -0.00151278663172224    2    1    3    2
 -0.01001941497229867    2    1    3    3
 0.0001946217811754605    2    1    4    1
 0.0003347710338903613    2    1    4    2
 0.0006466696609180954    2    1    4    3
 -0.002501196171497354    2    1    4    4
 -4.892578113406278e-05    2    1    5    1
 -5.146722168350058e-05    2    1    5    2
 -0.000118686363421108    2    1    5    3
 0.000135413513211911    2    1    5    4
 -0.0007506081561020234    2    1    5    5
 1.19869210285233e-05    2    1    6    1
 9.909708117581573e-06    2    1    6    2
 3.28053637227062e-05    2    1    6    3
 -2.752690560515253e-05    2    1    6    4
 2.973986720450347e-05    2    1    6    5
 -0.0002732043332090364    2    1    6    6
 -2.929651373005708e-06    2    1    7    1
 -2.230885112147953e-06    2    1    7    2
 -8.350708633182896e-06    2    1    7    3
 7.700794315002815e-06    2    1    7    4
 -6.397038875242318e-06    2    1    7    5
 8.45260992903346e-06    2    1    7    6
 -0.0001078199735977708    2    1    7    7
 7.337798152882834e-07    2    1    8    1
 5.069135965780326e-07    2    1    8    2
 2.055162786386203e-06    2    1    8    3
 -1.961534735610022e-06    2    1    8    4
 1.883830178640258e-06    2    1    8    5
 -1.893973503310428e-06    2    1    8    6
 2.978032695605411e-06    2    1    8    7
 -4.045621542294387e-05    2    1    8    8
 -1.840713657540928e-07    2    1    9    1
 -1.18083367984436e-07    2    1    9    2
 -5.145018973111316e-07    2    1    9    3
 4.846720645890486e-07    2    1    9    4
 -4.857456650629213e-07    2    1    9    5
 5.809457546875238e-07    2    1    9    6
 -6.791888995780463e-07    2    1    9    7
 1.196068355467148e-06    2    1    9    8
 -1.017798838113662e-05    2    1    9    9
 4.126796674956575e-08    2    1   10    1
 2.54218763058638e-08    2    1   10    2
 1.15510336986468e-07    2    1   10    3
 -1.088419575055771e-07    2    1   10    4
 1.082546618265966e-07    2    1   10    5
 -1.34989778223438e-07    2    1   10    6
 1.866168439626594e-07    2    1   10    7
 -2.236189494624632e-07    2    1   10    8
 3.839684533267581e-07    2    1   10    9
 4.599083440730038e-06    2    1   10   10
 0.4397896355150578    2    2    1    1
 -0.008653455594245145    2    2    2    1
 0.8880749863905338    2    2    2    2
 -0.006290579937917057    2    2    3    1
 -0.01369128103488657    2    2    3    2
 0.4589871224871648    2    2    3    3
 0.001253071459186926    2    2    4    1
 0.002547784281771691    2    2    4    2
 -0.01255348847582159    2    2    4    3
 0.2474325270560362    2    2    4    4
 -0.0002115918616365477    2    2    5    1
 -0.001147753110755557    2    2    5    2
 0.002580091700078421    2    2    5    3
 -0.00349636065862518    2    2    5    4
 0.1657218513721742    2    2    5    5
 4.125168097067243e-05    2    2    6    1
 0.0003291991564095144    2    2    6    2
 -0.0007619505656541669    2    2    6    3
 0.0007864633145986951    2    2    6    4
 -0.001258490653834894    2    2    6    5
 0.1245077665173905    2    2    6    6
 -8.697825425100883e-06    2    2    7    1
 -8.546551770229516e-05    2    2    7    2
 0.0001999201695168299    2    2    7    3
 -0.0002470127120369482    2    2    7    4
 0.0003021855480324778    2    2    7    5
 -0.0005824204073692483    2    2    7    6
 0.09971464372797166    2    2    7    7
 1.871762277178743e-06    2    2    8    1
 2.2625420338324e-05    2    2    8    2
 -5.090726506574737e-05    2    2    8    3
 6.6873810111673e-05    2    2    8    4
 -0.000101609065563146    2    2    8    5
 0.0001462947362043311    2    2    8    6
 -0.0003156769576491109    2    2    8    7
 0.08315033442528796    2    2    8    8
 -4.154456704457641e-07    2    2    9    1
 -5.886095639266711e-06    2    2    9    2
 1.309870724346703e-05    2    2    9    3
 -1.736501389021747e-05    2    2    9    4
 2.815720332522735e-05    2    2    9    5
 -5.070037529441232e-05    2    2    9    6
 7.902574020184281e-05    2    2    9    7
 -0.0001802330761986092    2    2    9    8
 0.07126721352640748    2    2    9    9
 8.634440353090915e-08    2    2   10    1
 1.343078648869013e-06    2    2   10    2
 -2.97394333370996e-06    2    2   10    3
 3.988087528888787e-06    2    2   10    4
 -6.387781343872979e-06    2    2   10    5
 1.166130906784205e-05    2    2   10    6
 -2.022249662089945e-05    2    2   10    7
 2.112090491142764e-05    2    2   10    8
 -1.017604238303408e-05    2    2   10    9
 0.06189907685578085    2    2   10   10
 0.002051125387359475    3    1    1    1
 -0.001014003335612309    3    1    2    1
 -0.006290579937916916    3    1    2    2
 0.000397036266152366    3    1    3    1
 -0.0009184555629069569    3    1    3    2
 0.001774995806190734    3    1    3    3
 -5.88596447432789e-05    3    1    4    1
 2.672747041650288e-05    3    1    4    2
 0.0003140711462854755    3    1    4    3
 0.002098235919707491    3    1    4    4
 1.185413891320635e-05    3    1    5    1
 4.437667603103032e-06    3    1    5    2
 -6.906149649662976e-05    3    1    5    3
 -0.0001198103415399149    3    1    5    4
 0.000595267996348786    3    1    5    5
 -2.86632052956644e-06    3    1    6    1
 -7.301257045271692e-07    3    1    6    2
 1.101514422770259e-05    3    1    6    3
 2.210775268337922e-05    3    1    6    4
 -2.814831296831506e-05    3    1    6    5
 0.0002040831804312837    3    1    6    6
 7.03422308436688e-07    3    1    7    1
 1.374919493657064e-07    3    1    7    2
 -2.161683351613205e-06    3    1    7    3
 -6.258591980289312e-06    3    1    7    4
 5.769555770767802e-06    3    1    7    5
 -6.720464511877295e-06    3    1    7    6
 8.628430919943018e-05    3    1    7    7
 -1.736325161951059e-07    3    1    8    1
 -4.270515356252118e-08    3    1    8    2
 4.872966974944819e-07    3    1    8    3
 1.604718514602989e-06    3    1    8    4
 -1.640590066444836e-06    3    1    8    5
 1.462817969260937e-06    3    1    8    6
 -2.061346277688434e-06    3    1    8    7
 4.135910946271748e-05    3    1    8    8
 4.321259877679574e-08    3    1    9    1
 1.118748089052013e-08    3    1    9    2
 -1.105347433890324e-07    3    1    9    3
 -3.934181801655477e-07    3    1    9    4
 4.173997939740492e-07    3    1    9    5
 -4.345914957886399e-07    3    1    9    6
 4.623903034826652e-07    3    1    9    7
 -7.673358213949408e-07    3    1    9    8
 2.112691953153802e-05    3    1    9    9
 -9.659729119052232e-09    3    1   10    1
 -2.497656392489326e-09    3    1   10    2
 2.318255083861305e-08    3    1   10    3
 8.795339961694228e-08    3    1   10    4
 -9.206684801138284e-08    3    1   10    5
 9.97875022854924e-08    3    1   10    6
 -1.242286173504426e-07    3    1   10    7
 1.396203412708997e-07    3    1   10    8
 -2.236299188476547e-07    3    1   10    9
 1.062531762459971e-05    3    1   10   10
 -0.01170223944226735    3    2    1    1
 -0.001512786631722285    3    2    2    1
 -0.01369128103488718    3    2    2    2
 -0.0009184555629068316    3    2    3    1
 0.01021526784227456    3    2    3    2
 -0.0134772463758895    3    2    3    3
 7.635943137417017e-05    3    2    4    1
 -0.001057870496842311    3    2    4    2
 -0.001465119703779767    3    2    4    3
 -0.01242215882760532    3    2    4    4
 -1.0339293414592e-05    3    2    5    1
 0.0002021122282050965    3    2    5    2
 0.0003288621564412679    3    2    5    3
 0.0007506926327609884    3    2    5    4
 -0.003437965800550186    3    2    5    5
 2.968822390046304e-06    3    2    6    1
 -5.17986580324127e-05    3    2    6    2
 -4.555770728448341e-05    3    2    6    3
 -0.0001391066764639489    3    2    6    4
 0.0001613363236263599    3    2    6    5
 -0.001225546160605812    3    2    6    6
 -8.032099932902829e-07    3    2    7    1
 1.279030805884437e-05    3    2    7    2
 8.055345637242563e-06    3    2    7    3
 3.867188958957416e-05    3    2    7    4
 -3.309615907738287e-05    3    2    7    5
 3.743993510874503e-05    3    2    7    6
 -0.0005614392781701903    3    2    7    7
 2.008582258435115e-07    3    2    8    1
 -3.135715476583968e-06    3    2    8    2
 -1.740263415266831e-06    3    2    8    3
 -9.862682622505877e-06    3    2    8    4
 9.360572370975999e-06    3    2    8    5
 -8.157682799684075e-06    3    2    8    6
 1.144125083685128e-05    3    2    8    7
 -0.00030207927241374    3    2    8    8
 -5.078130059989744e-08    3    2    9    1
 7.813018458930981e-07    3    2    9    2
 3.726588852986757e-07    3    2    9    3
 2.413547131264677e-06    3    2    9    4
 -2.378103401886943e-06    3    2    9    5
 2.422291090828535e-06    3    2    9    6
 -2.572514164740948e-06    3    2    9    7
 4.297341386983311e-06    3    2    9    8
 -0.0001802332586809945    3    2    9    9
 1.151668697633351e-08    3    2   10    1
 -1.747958221710899e-07    3    2   10    2
 -7.46451087599064e-08    3    2   10    3
 -5.386087815339035e-07    3    2   10    4
 5.241747425096873e-07    3    2   10    5
 -5.555162191038443e-07    3    2   10    6
 6.88599041415052e-07    3    2   10    7
 -7.672798401070128e-07    3    2   10    8
 1.196052753374207e-06    3    2   10    9
 -0.0001130642669117039    3    2   10   10
 0.2405270686734451    3    3    1    1
 -0.01001941497229849    3    3    2    1
 0.458987122487165    3    3    2    2
 0.001774995806190561    3    3    3    1
 -0.01347724637588919    3    3    3    2
 0.8917026445134008    3    3    3    3
 0.001194308679242843    3    3    4    1
 -0.006164655295450364    3    3    4    2
 -0.01382694795629849    3    3    4    3
 0.46005201679701    3    3    4    4
 -0.0002786224907417848    3    3    5    1
 0.001226738171634013    3    3    5    2
 0.00257751692946061    3    3    5    3
 -0.01259783439766459    3    3    5    4
 0.2478253815185752    3    3    5    5
 5.295359990645259e-05    3    3    6    1
 -0.0001972487209421738    3    3    6    2
 -0.001159767120858338    3    3    6    3
 0.002588857196778041    3    3    6    4
 -0.003508397190237983    3    3    6    5
 0.1659099821469722    3    3    6    6
 -1.115579642933861e-05    3    3    7    1
 3.676224104793598e-05    3    3    7    2
 0.0003327275420566245    3    3    7    3
 -0.0007645162194295358    3    3    7    4
 0.0007889283753461388    3    3    7    5
 -0.001261772324161126    3    3    7    6
 0.1246169523152842    3    3    7    7
 2.486782045643284e-06    3    3    8    1
 -7.434656014158838e-06    3    3    8    2
 -8.6352945343827e-05    3    3    8    3
 0.000200458699510917    3    3    8    4
 -0.0002475311106162911    3    3    8    5
 0.0003024320121016813    3    3    8    6
 -0.0005822534926738147    3    3    8    7
 0.09978202638487198    3    3    8    8
 -5.612479054568705e-07    3    3    9    1
 1.514344452444772e-06    3    3    9    2
 2.264762885497154e-05    3    3    9    3
 -5.055399976701163e-05    3    3    9    4
 6.624908582943104e-05    3    3    9    5
 -0.0001000751861111171    3    3    9    6
 0.0001418179086426085    3    3    9    7
 -0.0003020797472542405    3    3    9    8
 0.08315039847836793    3    3    9    9
 1.180598022122717e-07    3    3   10    1
 -2.951968305639608e-07    3    3   10    2
 -5.207454208158263e-06    3    3   10    3
 1.146563571302901e-05    3    3   10    4
 -1.490715508105514e-05    3    3   10    5
 2.314629618047149e-05    3    3   10    6
 -3.728281221596856e-05    3    3   10    7
 4.135094284003794e-05    3    3   10    8
 -4.045376347121352e-05    3    3   10    9
 0.07067585150325738    3    3   10   10
 -0.0009578585705870034    4    1    1    1
 0.0001946217811754704    4    1    2    1
 0.001253071459186901    4    1    2    2
 -5.885964474327774e-05    4    1    3    1
 7.635943137420654e-05    4    1    3    2
 0.001194308679242778    4    1    3    3
 2.139786352785247e-05    4    1    4    1
 -5.640944770052887e-05    4    1    4    2
 0.0001754742343576304    4    1    4    3
 -0.0009577045967090609    4    1    4    4
 -3.304376900482289e-06    4    1    5    1
 3.954003781650535e-06    4    1    5    2
 3.785284372733936e-06    4    1    5    3
 -4.199680429605325e-05    4    1    5    4
 -0.0006440364703053508    4    1    5    5
 6.97065560262454e-07    4    1    6    1
 -4.409150134667251e-07    4    1    6    2
 -2.78503803375847e-06    4    1    6    3
 1.013156419735312e-05    4    1    6    4
 3.391387760287557e-05    4    1    6    5
 -0.0002006639450489751    4    1    6    6
 -1.734418143462777e-07    4    1    7    1
 1.18359427145073e-07    4    1    7    2
 5.213475555174076e-07    4    1    7    3
 -9.200779761350105e-07    4    1    7    4
 -6.420159735280861e-06    4    1    7    5
 8.168815517743642e-06    4    1    7    6
 -7.801729789121636e-05    4    1    7    7
 4.334822071551042e-08    4    1    8    1
 -2.889562258526385e-08    4    1    8    2
 -1.108207415639942e-07    4    1    8    3
 8.422232014673006e-08    4    1    8    4
 1.827403765499897e-06    4    1    8    5
 -1.700325531187311e-06    4    1    8    6
 2.105939081411252e-06    4    1    8    7
 -3.728319365921087e-05    4    1    8    8
 -1.075742742636287e-08    4    1    9    1
 6.69744107760953e-09    4    1    9    2
 2.785192648724013e-08    4    1    9    3
 -9.818012182835812e-09    4    1    9    4
 -4.655626860495133e-07    4    1    9    5
 4.870011349298754e-07    4    1    9    6
 -4.595444913285778e-07    4    1    9    7
 6.886059021025762e-07    4    1    9    8
 -2.022278960708691e-05    4    1    9    9
 2.404336870319508e-09    4    1   10    1
 -1.460344162495338e-09    4    1   10    2
 -6.097118245958594e-09    4    1   10    3
 -1.119135704722272e-11    4    1   10    4
 1.019220218728045e-07    4    1   10    5
 -1.105399670434455e-07    4    1   10    6
 1.202906741330326e-07    4    1   10    7
 -1.242220890439797e-07    4    1   10    8
 1.866165973678155e-07    4    1   10    9
 -1.157379466834331e-05    4    1   10   10
 0.002412046340448569    4    2    1    1
 0.0003347710338903906    4    2    2    1
 0.002547784281771841    4    2    2    2
 2.672747041646363e-05    4    2    3    1
 -0.001057870496842353    4    2    3    2
 -0.006164655295450073    4    2    3    3
 -5.640944770051865e-05    4    2    4    1
 0.0004487604318546041    4    2    4    2
 -0.00104998474382919    4    2    4    3
 0.002511143831545467    4    2    4    4
 5.976662823709093e-06    4    2    5    1
 -6.433901290441096e-05    4    2    5    2
 3.264782224862979e-05    4    2    5    3
 0.0003277644470770065    4    2    5    4
 0.002550194920439673    4    2    5    5
 -9.798036477897626e-07    4    2    6    1
 1.282280185310689e-05    4    2    6    2
 3.767350729976362e-06    4    2    6    3
 -7.255318256737929e-05    4    2    6    4
 -0.0001389715533509175    4    2    6    5
 0.0007733003737559026    4    2    6    6
 2.525113283596255e-07    4    2    7    1
 -3.121833115094853e-06    4    2    7    2
 -4.648037105747242e-07    4    2    7    3
 1.100149970656856e-05    4    2    7    4
 2.581796016102393e-05    4    2    7    5
 -3.30902743671835e-05    4    2    7    6
 0.0002947719655033862    4    2    7    7
 -6.367327889078799e-08    4    2    8    1
 7.690388682489277e-07    4    2    8    2
 6.178085630175318e-08    4    2    8    3
 -2.077850861347716e-06    4    2    8    4
 -7.328655338648222e-06    4    2    8    5
 6.820615658404537e-06    4    2    8    6
 -8.164278628174772e-06    4    2    8    7
 0.0001418068749925031    4    2    8    8
 1.556554946845187e-08    4    2    9    1
 -1.885853541690563e-07    4    2    9    2
 -2.321522468553934e-08    4    2    9    3
 4.568947688028092e-07    4    2    9    4
 1.866378887861701e-06    4    2    9    5
 -1.936158694719771e-06    4    2    9    6
 1.768748799585624e-06    4    2    9    7
 -2.572411798018415e-06    4    2    9    8
 7.901847379083466e-05    4    2    9    9
 -3.465913865114031e-09    4    2   10    1
 4.184608770545513e-08    4    2   10    2
 5.492314985896178e-09    4    2   10    3
 -9.139225887079067e-08    4    2   10    4
 -4.077420806083683e-07    4    2   10    5
 4.382007264059452e-07    4    2   10    6
 -4.595242238557536e-07    4    2   10    7
 4.623441804610891e-07    4    2   10    8
 -6.79155171757184e-07    4    2   10    9
 4.729227532495474e-05    4    2   10   10
 -0.003278742533931016    4    3    1    1
 0.0006466696609181092    4    3    2    1
 -0.01255348847582187    4    3    2    2
 0.0003140711462855135    4    3    3    1
 -0.00146511970377968    4    3    3    2
 -0.01382694795629935    4    3    3    3
 0.0001754742343576234    4    3    4    1
 -0.001049984743829168    4    3    4    2
 0.01027215097880437    4    3    4    3
 -0.01381234885387623    4    3    4    4
 -1.080055328061267e-05    4    3    5    1
 9.037968549156032e-05    4    3    5    2
 -0.001059498992571022    4    3    5    3
 -0.001461303568328677    4    3    5    4
 -0.01258855389003163    4    3    5    5
 9.789340731259884e-07    4    3    6    1
 -1.283821930099656e-05    4    3    6    2
 0.0002022928767601523    4    3    6    3
 0.0003283307596948151    4    3    6    4
 0.0007576624970992599    4    3    6    5
 -0.00350431238881278    4    3    6    6
 -3.509306254488037e-07    4    3    7    1
 3.638883362440068e-06    4    3    7    2
 -5.1909921849593e-05    4    3    7    3
 -4.512575884016734e-05    4    3    7    4
 -0.0001404705576562418    4    3    7    5
 0.0001631103109551603    4    3    7    6
 -0.001259636533449716    4    3    7    7
 1.017917939563031e-07    4    3    8    1
 -9.767598530195055e-07    4    3    8    2
 1.281777489054277e-05    4    3    8    3
 7.91897226110472e-06    4    3    8    4
 3.90444558623219e-05    4    3    8    5
 -3.345403814570581e-05    4    3    8    6
 3.794148384296827e-05    4    3    8    7
 -0.0005822538164302109    4    3    8    8
 -2.546840437532498e-08    4    3    9    1
 2.425053949700328e-07    4    3    9    2
 -3.116989714131435e-06    4    3    9    3
 -1.694478886159014e-06    4    3    9    4
 -9.877239269333845e-06    4    3    9    5
 9.383518337075428e-06    4    3    9    6
 -8.164560899313278e-06    4    3    9    7
 1.144127981985278e-05    4    3    9    8
 -0.0003156781057828848    4    3    9    9
 5.796370657304507e-09    4    3   10    1
 -5.448319031062844e-08    4    3   10    2
 6.915750955012997e-07    4    3   10    3
 3.269873350327282e-07    4    3   10    4
 2.151627303584955e-06    4    3   10    5
 -2.115967793556993e-06    4    3   10    6
 2.105924198780516e-06    4    3   10    7
 -2.061230559731166e-06    4    3   10    8
 2.97800844341711e-06    4    3   10    9
 -0.0001852398417361149    4    3   10   10
 0.1624736225029359    4    4    1    1
 -0.002501196171497379    4    4    2    1
 0.2474325270560366    4    4    2    2
 0.002098235919707595    4    4    3    1
 -0.01242215882760581    4    4    3    2
 0.4600520167970104    4    4    3    3
 -0.000957704596709107    4    4    4    1
 0.00251114383154565    4    4    4    2
 -0.01381234885387645    4    4    4    3
 0.8919139922302037    4    4    4    4
 -0.0001867600244251114    4    4    5    1
 0.001223304712784413    4    4    5    2
 -0.00614837327683646    4    4    5    3
 -0.01383594158788481    4    4    5    4
 0.4601120792158462    4    4    5    5
 5.067551562982027e-05    4    4    6    1
 -0.0002890038051295136    4    4    6    2
 0.001223769011863032    4    4    6    3
 0.002579659204212516    4    4    6    4
 -0.01260024990032562    4    4    6    5
 0.2478487718276685    4    4    6    6
 -9.706075620959034e-06    4    4    7    1
 5.412233561259675e-05    4    4    7    2
 -0.0001960645306570179    4    4    7    3
 -0.001160450176752845    4    4    7    4
 0.002589110061667841    4    4    7    5
 -0.0035087448178716    4    4    7    6
 0.1659206090140235    4    4    7    7
 2.021047894423042e-06    4    4    8    1
 -1.124460180729153e-05    4    4    8    2
 3.639915153151917e-05    4    4    8    3
 0.00033269459746708    4    4    8    4
 -0.0007640674333531532    4    4    8    5
 0.0007880572322028514    4    4    8    6
 -0.001259631428946103    4    4    8    7
 0.1246168100349716    4    4    8    8
 -4.465408746798733e-07    4    4    9    1
 2.465316999149339e-06    4    4    9    2
 -7.309022752212495e-06    4    4    9    3
 -8.5506026135732e-05    4    4    9    4
 0.0001984146774250814    4    4    9    5
 -0.0002441440506348636    4    4    9    6
 0.0002947889272147135    4    4    9    7
 -0.0005614386278489645    4    4    9    8
 0.09971464506808712    4    4    9    9
 9.173667002245981e-08    4    4   10    1
 -5.022918930797743e-07    4    4   10    2
 1.377071408871545e-06    4    4   10    3
 1.977161399233364e-05    4    4   10    4
 -4.401373141503223e-05    4    4   10    5
 5.613180587002971e-05    4    4   10    6
 -7.801632142918254e-05    4    4   10    7
 8.627207911903128e-05    4    4   10    8
 -0.0001078161287318278    4    4   10    9
 0.08230290719849338    4    4   10   10
 0.0002732263948134521    5    1    1    1
 -4.892578113406328e-05    5    1    2    1
 -0.0002115918616365447    5    1    2    2
 1.185413891320528e-05    5    1    3    1
 -1.033929341459714e-05    5    1    3    2
 -0.0002786224907417757    5    1    3    3
 -3.30437690048246e-06    5    1    4    1
 5.97666282371255e-06    5    1    4    2
 -1.080055328061839e-05    5    1    4    3
 -0.0001867600244251127    5    1    4    4
 1.212499050225781e-06    5    1    5    1
 -3.236779130974089e-06    5    1    5    2
 1.123860950492905e-05    5    1    5    3
 -4.542893498855836e-05    5    1    5    4
 0.0002848231146776523    5    1    5    5
 -1.91305002411598e-07    5    1    6    1
 2.857026582440272e-07    5    1    6    2
 -4.63088136932368e-07    5    1    6    3
 -4.501445955852746e-07    5    1    6    4
 7.161542220103854e-06    5    1    6    5
 0.0001720613161416311    5    1    6    6
 4.179553966663772e-08    5    1    7    1
 -4.409060695303598e-08    5    1    7    2
 4.266712099520231e-09    5    1    7    3
 4.898661227226042e-07    5    1    7    4
 -1.859336083952293e-06    5    1    7    5
 -8.727479373238917e-06    5    1    7    6
 5.613251943045597e-05    5    1    7    7
 -1.056398536805818e-08    5    1    8    1
 1.135416991628686e-08    5    1    8    2
 -5.444936859961364e-09    5    1    8    3
 -7.462813632511564e-08    5    1    8    4
 6.216164171816341e-08    5    1    8    5
 1.664993436906351e-06    5    1    8    6
 -2.1159895596373e-06    5    1    8    7
 2.314648177331468e-05    5    1    8    8
 2.646529437920412e-09    5    1    9    1
 -2.817396712767442e-09    5    1    9    2
 1.521545396750642e-09    5    1    9    3
 1.360609164833857e-08    5    1    9    4
 1.981048099413519e-08    5    1    9    5
 -4.706580370281885e-07    5    1    9    6
 4.382187929275687e-07    5    1    9    7
 -5.555223811824028e-07    5    1    9    8
 1.166144338516299e-05    5    1    9    9
 -5.894558873876003e-10    5    1   10    1
 6.088199733508771e-10    5    1   10    2
 -2.734407730563449e-10    5    1   10    3
 -3.015848964288772e-09    5    1   10    4
 -6.302303039090778e-09    5    1   10    5
 1.06722836488416e-07    5    1   10    6
 -1.105402589073322e-07    5    1   10    7
 9.978341326738431e-08    5    1   10    8
 -1.349898711924823e-07    5    1   10    9
 6.467788919515128e-06    5    1   10   10
 -0.0007122714740849979    5    2    1    1
 -5.146722168351124e-05    5    2    2    1
 -0.001147753110755577    5    2    2    2
 4.437667603114469e-06    5    2    3    1
 0.0002021122282050917    5    2    3    2
 0.001226738171633982    5    2    3    3
 3.954003781649578e-06    5    2    4    1
 -6.433901290441786e-05    5    2    4    2
 9.037968549158858e-05    5    2    4    3
 0.001223304712784415    5    2    4    4
 -3.23677913097359e-06    5    2    5    1
 2.495713918470802e-05    5    2    5    2
 -6.407034325396205e-05    5    2    5    3
 0.0002002937641549854    5    2    5    4
 -0.001144814566339969    5    2    5    5
 3.254752536733122e-07    5    2    6    1
 -3.728964768503537e-06    5    2    6    2
 4.638135807452275e-06    5    2    6    3
 3.753349843734827e-06    5    2    6    4
 -4.491192157433826e-05    5    2    6    5
 -0.0007555053154615159    5    2    6    6
 -5.613075996379328e-08    5    2    7    1
 7.787782766974687e-07    5    2    7    2
 -5.546111691521934e-07    5    2    7    3
 -2.946281115665329e-06    5    2    7    4
 1.091875302845569e-05    5    2    7    5
 3.871184587716827e-05    5    2    7    6
 -0.0002441443242598976    5    2    7    7
 1.472944737453044e-08    5    2    8    1
 -1.948110690345325e-07    5    2    8    2
 1.491945603555357e-07    5    2    8    3
 5.340837502902097e-07    5    2    8    4
 -8.973850657662418e-07    5    2    8    5
 -7.343721946604651e-06    5    2    8    6
 9.383486734160238e-06    5    2    8    7
 -0.000100074946660953    5    2    8    8
 -3.726206112039919e-09    5    2    9    1
 4.844668215377686e-08    5    2    9    2
 -3.658315655761401e-08    5    2    9    3
 -1.102735354090956e-07    5    2    9    4
 5.967626749261275e-08    5    2    9    5
 2.075550874603713e-06    5    2    9    6
 -1.936211829589995e-06    5    2    9    7
 2.422287722714689e-06    5    2    9    8
 -5.070046891872598e-05    5    2    9    9
 8.213842656569843e-10    5    2   10    1
 -1.071341786198476e-08    5    2   10    2
 7.673912005631247e-09    5    2   10    3
 2.475453487382322e-08    5    2   10    4
 -3.755907608712553e-09    5    2   10    5
 -4.706514722839787e-07    5    2   10    6
 4.869959816669825e-07    5    2   10    7
 -4.345685546827828e-07    5    2   10    8
 5.809393237161542e-07    5    2   10    9
 -2.856918788841228e-05    5    2   10   10
 0.0007401380725114995    5    3    1    1
 -0.0001186863634211069    5    3    2    1
 0.002580091700078458    5    3    2    2
 -6.906149649665144e-05    5    3    3    1
 0.0003288621564413155    5    3    3    2
 0.002577516929460638    5    3    3    3
 3.785284372733043e-06    5    3    4    1
 3.264782224863665e-05    5    3    4    2
 -0.001059498992571086    5    3    4    3
 -0.006148373276836342    5    3    4    4
 1.12386095049277e-05    5    3    5    1
 -6.407034325395555e-05    5    3    5    2
 0.00045207623813439    5    3    5    3
 -0.001058930251772152    5    3    5    4
 0.002575201632531318    5    3    5    5
 -9.909838695031526e-07    5    3    6    1
 6.893105860676607e-06    5    3    6    2
 -6.461814561458935e-05    5    3    6    3
 3.292518329587415e-05    5    3    6    4
 0.0003282582832425528    5    3    6    5
 0.002586774383461588    5    3    6    6
 1.356370845974178e-07    5    3    7    1
 -1.146220654723372e-06    5    3    7    2
 1.286495547105419e-05    5    3    7    3
 3.743433535966306e-06    5    3    7    4
 -7.270928420404074e-05    5    3    7    5
 -0.0001404651329393842    5    3    7    6
 0.0007880979051508212    5    3    7    7
 -3.607920534401057e-08    5    3    8    1
 2.950783328483973e-07    5    3    8    2
 -3.132181059053628e-06    5    3    8    3
 -4.500223513553983e-07    5    3    8    4
 1.097015422968005e-05    5    3    8    5
 2.609136040031138e-05    5    3    8    6
 -3.345502481410311e-05    5    3    8    7