 &FCI NORB= 12,NELEC= 10,ORBSYM= 1, 1, 1, 1, 1, 1, 1, 1, 1, 1, 1, 1, 
 ISYM= 0 ,
 TREL=.TRUE.
 &END
(5.36229241454141,5.78981751092843e-16)   1   1   1   1
(0.503424263830195,0.0252527480461516)   3   1   1   1
(0.000158422214034156,-1.49288895627892e-05)   5   1   1   1
(0.00810753712717133,0.00341986863637476)   7   1   1   1
(-0.0999695309203204,-0.0047742707593568)  11   1   1   1
(0.503424263830195,0.0252527480461516)   1   1   3   1
(0.074370412530328,0.00747995261785171)   3   1   3   1
(2.28715464074812e-05,-1.0032640416858e-06)   5   1   3   1
(0.00114234923236166,0.000550815541401044)   7   1   3   1
(3.95907667063057e-07,9.90709506717254e-08)   9   1   3   1
(-0.0153399556171379,-0.00150568349143624)  11   1   3   1
(0.000158422214034156,-1.49288895627892e-05)   1   1   5   1
(2.28715464074812e-05,-1.0032640416858e-06)   3   1   5   1
(4.76758453449922e-08,-9.07424264686589e-09)   5   1   5   1
(3.16517299073337e-06,1.03564325307728e-06)   7   1   5   1
(-0.00109788477450169,-0.000275561533027109)   9   1   5   1
(2.13171374921521e-05,-9.86384439421173e-07)  11   1   5   1
(0.00810753712717133,0.00341986863637476)   1   1   7   1
(0.00114234923236166,0.000550815541401044)   3   1   7   1
(3.16517299073337e-06,1.03564325307728e-06)   5   1   7   1
(0.000105486699440046,0.000108257733539881)   7   1   7   1
(6.53671814157126e-06,1.72599856045111e-06)   9   1   7   1
(0.00100244508040581,0.000480396323662158)  11   1   7   1
(3.95907667063057e-07,9.90709506717254e-08)   3   1   9   1
(-0.00109788477450169,-0.000275561533027109)   5   1   9   1
(6.53671814157126e-06,1.72599856045111e-06)   7   1   9   1
(-6.06238021393677e-06,-2.63287369167509e-07)   9   1   9   1
(4.40262507486669e-08,1.09257022090731e-08)  11   1   9   1
(-0.0999695309203204,-0.0047742707593568)   1   1  11   1
(-0.0153399556171379,-0.00150568349143624)   3   1  11   1
(2.13171374921521e-05,-9.86384439421173e-07)   5   1  11   1
(0.00100244508040581,0.000480396323662158)   7   1  11   1
(4.40262507486669e-08,1.09257022090731e-08)   9   1  11   1
(0.0193792525312325,0.00185523128698345)  11   1  11   1
(0.503424263830194,-0.0252527480461516)   1   3   1   1
(1.23568414233611,-1.50203672046959e-16)   3   3   1   1
(0.0292288447524317,-3.37194566690518e-06)   5   3   1   1
(0.00985397564057358,0.00358574795153471)   7   3   1   1
(-0.141174140088755,0.000339590245280053)  11   3   1   1
(0.0747329891437167,2.29809832408544e-17)   1   3   3   1
(0.0219643749857521,0.00110177611071233)   3   3   3   1
(0.00116203812631165,5.8156935390282e-05)   5   3   3   1
(0.000379148174928791,0.000159905244482938)   7   3   3   1
(-4.6168779555069e-07,-9.11263323266117e-08)   9   3   3   1
(-0.00362982176290397,-0.00017332659525098)  11   3   3   1
(1.38155458451181e-05,-3.29538768149888e-06)   1   3   5   1
(8.4390640142654e-06,-1.03030816404916e-06)   3   3   5   1
(-8.68054271976867e-06,8.17936302825189e-07)   5   3   5   1
(-0.00086342945139842,-0.000364462703970558)   7   3   5   1
(0.00144198759091289,0.000285984850703525)   9   3   5   1
(-3.25042544612934e-05,3.12472833217457e-06)  11   3   5   1
(0.00119075222055483,0.000433375191356749)   1   3   7   1
(0.000510178207603278,0.000215199972145386)   3   3   7   1
(-0.000439084866215991,-0.000185051638864737)   5   3   7   1
(-0.000114065235198561,-0.000108403432595074)   7   3   7   1
(-1.11266627772035e-05,-2.32145905024927e-06)   9   3   7   1
(-0.001616962735288,-0.000677482326604138)  11   3   7   1
(-2.04777755389459e-07,-4.04182895177948e-08)   3   3   9   1
(0.0014639558350797,0.000290341742498457)   5   3   9   1
(-1.11508935353859e-05,-2.32651436143963e-06)   7   3   9   1
(0.00383885222486762,0.000341877265795943)   9   3   9   1
(-4.84462198240666e-08,-8.33899162719992e-09)  11   3   9   1
(-0.0154084614447979,3.69639659459571e-05)   1   3  11   1
(-0.00271467192794036,-0.000129645328929839)   3   3  11   1
(-0.00586409858572247,-0.000279374130019159)   5   3  11   1
(-0.00183100453133678,-0.000767055216662545)   7   3  11   1
(-9.05684456827142e-08,-1.55893347454101e-08)   9   3  11   1
(-0.0184364817430416,-0.000836031403315075)  11   3  11   1
(0.000158422214034156,1.49288895627892e-05)   1   5   1   1
(0.0292288447524317,3.37194566687119e-06)   3   5   1   1
(0.882154631240664,-2.8047306533526e-16)   5   5   1   1
(-6.54325422652012e-05,-2.51498751855276e-05)   7   5   1   1
(1.87704398604907e-08,-3.85306848725844e-09)   9   5   1   1
(0.00154018555693842,8.86202051279347e-05)  11   5   1   1
(1.38155458451181e-05,3.29538768149888e-06)   1   5   3   1
(0.00116044125740985,5.83445113425277e-05)   3   5   3   1
(0.00811412387605841,0.000407020085562902)   5   5   3   1
(-4.19164639917923e-06,-1.78684015246668e-06)   7   5   3   1
(2.11616159983784e-09,8.38137536881935e-11)   9   5   3   1
(2.63819570857819e-05,2.74307054163973e-06)  11   5   3   1
(0.000221938441995613,5.30377061217777e-21)   1   5   5   1
(-0.000333304922769292,-1.54516930585794e-05)   3   5   5   1
(-3.11833709943497e-06,2.93814713419867e-07)   5   5   5   1
(-0.000558935318381427,-0.000235766319459387)   7   5   5   1
(3.33807424121457e-07,1.21426677308614e-07)   9   5   5   1
(5.61018929240058e-05,2.67999570813047e-06)  11   5   5   1
(8.67514517485526e-07,1.23543601342554e-06)   1   5   7   1
(-0.000433578914760684,-0.000183650956693348)   3   5   7   1
(-0.000151644644685476,-6.39657566779162e-05)   5   5   7   1
(3.27709256876463e-06,1.40156015395672e-06)   7   5   7   1
(-1.58679678527561e-06,-3.16499019647518e-07)   9   5   7   1
(-7.32876376061022e-07,-2.18124606798781e-07)  11   5   7   1
(6.48527924636808e-07,-1.3291416846171e-07)   1   5   9   1
(-1.38969759731629e-06,-5.50961750563085e-08)   3   5   9   1
(3.17196263377034e-09,1.15372573769313e-09)   5   5   9   1
(-1.60419027633041e-06,-3.19968148875909e-07)   7   5   9   1
(0.00245890198298536,0.000217464875287027)   9   5   9   1
(1.47115087401097e-07,-2.25749633435484e-08)  11   5   9   1
(2.08096099565707e-05,2.97331902794314e-06)   1   5  11   1
(-0.00586098108476297,-0.000280583070378301)   3   5  11   1
(-0.00517525682443289,-0.000247156079516801)   5   5  11   1
(-3.01193383943148e-07,-1.33750333537433e-07)   7   5  11   1
(-4.23144217489348e-09,6.49280364790835e-10)   9   5  11   1
(-1.65151089201248e-05,-1.7434126738345e-06)  11   5  11   1
(0.00810753712717133,-0.00341986863637477)   1   7   1   1
(0.00985397564057363,-0.0035857479515347)   3   7   1   1
(-6.54325422652014e-05,2.51498751855278e-05)   5   7   1   1
(1.26059237496656,-1.02610842807818e-16)   7   7   1   1
(5.78671390147732e-09,-6.31468091959844e-10)   9   7   1   1
(0.0376561241244124,-0.013807346684049)  11   7   1   1
(0.00119075222055483,-0.000433375191356749)   1   7   3   1
(0.000394398674516614,-0.000121515425495922)   3   7   3   1
(-1.1272608130535e-06,3.68340594179863e-07)   5   7   3   1
(0.0144607006591265,0.000725377460412762)   7   7   3   1
(-1.0677010179142e-07,1.6570157128508e-08)   9   7   3   1
(0.000612549529076353,-0.000190375488979584)  11   7   3   1
(8.67514517485527e-07,-1.23543601342554e-06)   1   7   5   1
(-7.99132557946691e-07,1.38626233337249e-06)   3   7   5   1
(4.59315348936084e-06,-4.32212110580369e-07)   7   7   5   1
(2.29307766160158e-05,-3.54204147031687e-06)   9   7   5   1
(-5.43366247154185e-07,8.76362433214518e-08)  11   7   5   1
(0.0001247646489929,6.65582608084668e-20)   1   7   7   1
(-0.00016202225327972,-7.87251820544605e-06)   3   7   7   1
(-1.85555365019135e-06,7.73966832452521e-08)   5   7   7   1
(0.000234823040905391,9.90515293743257e-05)   7   7   7   1
(-1.38888700448382e-07,1.9684565439985e-08)   9   7   7   1
(-1.30142727178537e-05,-6.21905782728179e-07)  11   7   7   1
(-3.27275909504019e-06,3.56748870591649e-07)   1   7   9   1
(0.00416125080921507,-0.000645804568185843)   3   7   9   1
(0.0026908769642505,-0.000415650895638146)   5   7   9   1
(1.87037851732872e-07,-1.22202419519657e-08)   9   7   9   1
(-5.9417425382565e-06,9.33854222747996e-07)  11   7   9   1
(0.00107767575862427,-0.000395151119523391)   1   7  11   1
(-0.00194390233168498,0.000604031629148122)   3   7  11   1
(-3.71360711182698e-07,1.23339634919156e-07)   5   7  11   1
(-0.00293312930816085,-0.000140078215851975)   7   7  11   1
(-1.15072565979923e-09,1.80856388216431e-10)   9   7  11   1
(-0.000415732593532732,0.000130300451477865)  11   7  11   1
(1.87704398499079e-08,3.85306849275297e-09)   5   9   1   1
(5.78671379853661e-09,6.31467920804534e-10)   7   9   1   1
(1.26410209402951,-3.46641205023013e-16)   9   9   1   1
(9.23569854448073e-09,-2.27717916009736e-09)  11   9   1   1
(2.71025608938749e-07,4.2536550684025e-08)   3   9   3   1
(1.62713446578988e-06,2.57565829192542e-07)   5   9   3   1
(0.0145260431786926,0.000728654852680378)   9   9   3   1
(3.61353185704016e-09,3.42052107426104e-10)  11   9   3   1
(6.4852792463724e-07,1.32914168461819e-07)   1   9   5   1
(-0.000846344591549997,-0.000133971330204906)   3   9   5   1
(-0.000541430687815306,-8.61001236114058e-05)   5   9   5   1
(-2.82572186359128e-08,-4.8483177628603e-09)   7   9   5   1
(4.65767892895739e-06,-4.389328173901e-07)   9   9   5   1
(1.21145931295959e-06,1.89330274103841e-07)  11   9   5   1
(-3.27275909504016e-06,-3.56748870591676e-07)   1   9   7   1
(9.36375680334965e-06,1.55306320119668e-06)   3   9   7   1
(3.24809163548266e-06,5.57300980820916e-07)   5   9   7   1
(6.04399574237365e-08,3.35560796004081e-08)   7   9   7   1
(0.000238157586615355,0.000100458085885108)   9   9   7   1
(-7.36637782485079e-07,-1.16067131315389e-07)  11   9   7   1
(0.00501062092224474,-1.55652524262187e-19)   1   9   9   1
(-0.00663390581691426,-0.000332594543771801)   3   9   9   1
(-3.07011860210207e-06,2.31357435736278e-07)   5   9   9   1
(-9.68364459880764e-05,-4.08468927747353e-05)   7   9   9   1
(0.00112497803106912,5.37256180750932e-05)  11   9   9   1
(-1.00809811910851e-08,2.47655455690232e-09)   1   9  11   1
(5.20544494798955e-08,4.92809731299666e-09)   3   9  11   1
(2.53077376526383e-08,3.95519165848333e-09)   5   9  11   1
(-0.00291764668040221,-0.000139338807654061)   9   9  11   1
(-1.72792791865749e-09,3.18451062729817e-10)  11   9  11   1
(-0.0999695309203204,0.00477427075935683)   1  11   1   1
(-0.141174140088755,-0.000339590245279964)   3  11   1   1
(0.00154018555693843,-8.86202051279351e-05)   5  11   1   1
(0.0376561241244129,0.0138073466840489)   7  11   1   1
(9.23569854418748e-09,2.27717915965361e-09)   9  11   1   1
(0.834001326976905,-2.90958554101003e-17)  11  11   1   1
(-0.0154084614447979,-3.69639659459639e-05)   1  11   3   1
(-0.00362903063279184,-0.000190791831540904)   3  11   3   1
(2.47809794677521e-05,-1.82143161680883e-07)   5  11   3   1
(0.000590628784073157,0.000250805662554099)   7  11   3   1
(7.61987797741241e-07,1.52464039406953e-07)   9  11   3   1
(0.008534430542477,0.000428103737950016)  11  11   3   1
(2.08096099565707e-05,-2.97331902794314e-06)   1  11   5   1
(-3.23912098351716e-05,2.9779109919486e-06)   3  11   5   1
(-8.55124868317741e-09,1.29729717279362e-09)   5  11   5   1
(9.88748679898183e-07,4.58122181143011e-07)   7  11   5   1
(-0.000244081663788772,-4.9018561063798e-05)   9  11   5   1
(1.62708260565007e-05,-1.53373875867936e-06)  11  11   5   1
(0.00107767575862427,0.000395151119523392)   1  11   7   1
(-0.00160413082561963,-0.000681193150357469)   3  11   7   1
(-2.53972232947332e-07,-9.63037447459234e-08)   5  11   7   1
(-8.74800641580308e-06,-8.1554883757649e-06)   7  11   7   1
(1.47154179855272e-06,3.1432215815666e-07)   9  11   7   1
(0.000811418760543743,0.000342267384627679)  11  11   7   1
(-1.00809811911779e-08,-2.47655455695033e-09)   1  11   9   1
(1.0258176043153e-05,2.05252858872538e-06)   3  11   9   1
(-0.000240327656552737,-4.82646493212688e-05)   5  11   9   1
(1.47528113050341e-06,3.15120880632303e-07)   7  11   9   1
(-6.15177898535619e-06,-4.960224253846e-07)   9  11   9   1
(-8.91824416917475e-09,-1.76458095826013e-09)  11  11   9   1
(0.0192930989094709,1.76056459831296e-18)   1  11  11   1
(-0.0184435132564812,-0.000925283240101567)   3  11  11   1
(-1.654337574298e-05,1.6136821758092e-07)   5  11  11   1
(-0.000408177220690332,-0.000172174470825816)   7  11  11   1
(1.32519467261269e-08,2.62217804163898e-09)   9  11  11   1
(0.00694881743017036,0.000331856472424909)  11  11  11   1
(0.503424263830194,-0.0252527480461516)   1   1   1   3
(0.0747329891437167,2.29809832408544e-17)   3   1   1   3
(1.38155458451181e-05,-3.29538768149888e-06)   5   1   1   3
(0.00119075222055483,0.000433375191356749)   7   1   1   3
(-0.0154084614447979,3.69639659459571e-05)  11   1   1   3
(1.23568414233611,-1.50203672046959e-16)   1   1   3   3
(0.0219643749857521,0.00110177611071233)   3   1   3   3
(8.4390640142654e-06,-1.03030816404916e-06)   5   1   3   3
(0.000510178207603278,0.000215199972145386)   7   1   3   3
(-2.04777755389459e-07,-4.04182895177948e-08)   9   1   3   3
(-0.00271467192794036,-0.000129645328929839)  11   1   3   3
(0.0292288447524317,-3.37194566690518e-06)   1   1   5   3
(0.00116203812631165,5.8156935390282e-05)   3   1   5   3
(-8.68054271976867e-06,8.17936302825189e-07)   5   1   5   3
(-0.000439084866215991,-0.000185051638864737)   7   1   5   3
(0.0014639558350797,0.000290341742498457)   9   1   5   3
(-0.00586409858572247,-0.000279374130019159)  11   1   5   3
(0.00985397564057358,0.00358574795153471)   1   1   7   3
(0.000379148174928791,0.000159905244482938)   3   1   7   3
(-0.00086342945139842,-0.000364462703970558)   5   1   7   3
(-0.000114065235198561,-0.000108403432595074)   7   1   7   3
(-1.11508935353859e-05,-2.32651436143963e-06)   9   1   7   3
(-0.00183100453133678,-0.000767055216662545)  11   1   7   3
(-4.6168779555069e-07,-9.11263323266117e-08)   3   1   9   3
(0.00144198759091289,0.000285984850703525)   5   1   9   3
(-1.11266627772035e-05,-2.32145905024927e-06)   7   1   9   3
(0.00383885222486762,0.000341877265795943)   9   1   9   3
(-9.05684456827142e-08,-1.55893347454101e-08)  11   1   9   3
(-0.141174140088755,0.000339590245280053)   1   1  11   3
(-0.00362982176290397,-0.00017332659525098)   3   1  11   3
(-3.25042544612934e-05,3.12472833217457e-06)   5   1  11   3
(-0.001616962735288,-0.000677482326604138)   7   1  11   3
(-4.84462198240666e-08,-8.33899162719992e-09)   9   1  11   3
(-0.0184364817430416,-0.000836031403315075)  11   1  11   3
(0.0743704125303281,-0.00747995261785167)   1   3   1   3
(0.021964374985752,-0.00110177611071261)   3   3   1   3
(0.00116044125740985,-5.83445113425177e-05)   5   3   1   3
(0.000394398674516607,0.000121515425495919)   7   3   1   3
(2.71025608938757e-07,-4.25365506840056e-08)   9   3   1   3
(-0.00362903063279179,0.000190791831540936)  11   3   1   3
(0.021964374985752,-0.00110177611071261)   1   3   3   3
(0.874792693105917,2.60716272540907e-16)   3   3   3   3
(0.0115971948261446,-1.34100475328941e-06)   5   3   3   3
(0.00395298653449599,0.00143844625594025)   7   3   3   3
(-1.02399000549521e-07,-5.42432671309627e-09)   9   3   3   3
(-0.0782795997067859,0.000188299145201785)  11   3   3   3
(0.00116044125740985,-5.83445113425177e-05)   1   3   5   3
(0.0115971948261446,-1.34100475328941e-06)   3   3   5   3
(0.00862296686012853,-1.82078572411325e-06)   5   3   5   3
(0.00683498829997736,0.00249028018202828)   7   3   5   3
(-0.00670282167805022,-0.000982705178687468)   9   3   5   3
(0.0194589205229643,-4.90521818889717e-05)  11   3   5   3
(0.000394398674516607,0.000121515425495919)   1   3   7   3
(0.00395298653449599,0.00143844625594025)   3   3   7   3
(0.00683498829997736,0.00249028018202828)   5   3   7   3
(0.000746386279875237,0.000648252968637215)   7   3   7   3
(0.0108998741346876,0.0026972224698781)   9   3   7   3
(0.00623262013491253,0.00225103315691537)  11   3   7   3
(2.71025608938757e-07,-4.25365506840056e-08)   1   3   9   3
(-1.02399000549521e-07,-5.42432671309627e-09)   3   3   9   3
(-0.00670282167805022,-0.000982705178687468)   5   3   9   3
(0.0108998741346876,0.0026972224698781)   7   3   9   3
(-0.0352450582710903,-0.00136800274714838)   9   3   9   3
(2.23559841777207e-05,-2.35598343838262e-06)  11   3   9   3
(-0.00362903063279179,0.000190791831540936)   1   3  11   3
(-0.0782795997067859,0.000188299145201785)   3   3  11   3
(0.0194589205229643,-4.90521818889717e-05)   5   3  11   3
(0.00623262013491253,0.00225103315691537)   7   3  11   3
(2.23559841777207e-05,-2.35598343838262e-06)   9   3  11   3
(0.085490143063323,-0.00041129014964332)  11   3  11   3
(2.28715464074812e-05,1.0032640416858e-06)   1   5   1   3
(0.00116203812631164,-5.81569353902712e-05)   3   5   1   3
(0.00811412387605834,-0.000407020085562986)   5   5   1   3
(-1.12726081305349e-06,-3.68340594179828e-07)   7   5   1   3
(1.62713446578696e-06,-2.57565829193282e-07)   9   5   1   3
(2.47809794677519e-05,1.82143161680705e-07)  11   5   1   3
(8.43906401426547e-06,1.03030816404908e-06)   1   5   3   3
(0.0115971948261446,1.34100475331923e-06)   3   5   3   3
(0.687757153899653,4.8248864112379e-17)   5   5   3   3
(-3.97863041751167e-05,-1.5212524414803e-05)   7   5   3   3
(2.60245524106012e-06,-2.7850542145601e-07)   9   5   3   3
(0.000875153205617227,5.04721651085437e-05)  11   5   3   3
(-0.000333304922769291,1.54516930585795e-05)   1   5   5   3
(0.010119415242644,5.40138987980382e-19)   3   5   5   3
(0.0032779398190959,-3.78563996634428e-07)   5   5   5   3
(0.00221561167709189,0.000806310614030053)   7   5   5   3
(-2.10263581363516e-06,-2.01617908544166e-07)   9   5   5   3
(-0.000146700991527512,4.62945588711834e-06)  11   5   5   3
(-7.99132557947229e-07,-1.38626233337311e-06)   1   5   7   3
(0.00278641970712787,0.00101722420707173)   3   5   7   3
(0.00111359534895479,0.000405224554928526)   5   5   7   3
(-1.38565238789908e-05,-5.55506259636526e-06)   7   5   7   3
(0.00590852334222699,0.0014595543496384)   9   5   7   3
(2.44874053638209e-05,9.99381414476561e-06)  11   5   7   3
(-0.000846344591549995,0.000133971330204906)   1   5   9   3
(0.00391000917010207,-0.000418430731136226)   3   5   9   3
(1.6130832549842e-09,1.5509567351864e-10)   5   5   9   3
(0.00595965268600447,0.00147218458729012)   7   5   9   3
(-0.00959045941059066,-0.000365969342448354)   9   5   9   3
(-0.000561904441882438,6.16440327812832e-05)  11   5   9   3
(-3.23912098351716e-05,-2.9779109919486e-06)   1   5  11   3
(0.0194513670541079,-4.45420938107361e-05)   3   5  11   3
(-0.0212524901995576,5.1121997245264e-05)   5   5  11   3
(9.4445276517881e-06,3.60729448234488e-06)   7   5  11   3
(1.06769865126462e-05,-1.17132380779466e-06)   9   5  11   3
(-0.000120156332772387,-6.62491893289873e-06)  11   5  11   3
(0.00114234923236166,-0.000550815541401044)   1   7   1   3
(0.000379148174928796,-0.000159905244482941)   3   7   1   3
(-4.19164639917919e-06,1.78684015246669e-06)   5   7   1   3
(0.0144607006591264,-0.000725377460412925)   7   7   1   3
(0.000590628784073157,-0.000250805662554096)  11   7   1   3
(0.00051017820760328,-0.000215199972145392)   1   7   3   3
(0.003952986534496,-0.00143844625594024)   3   7   3   3
(-3.97863041751168e-05,1.52125244148031e-05)   5   7   3   3
(0.894590905715428,7.26866683949999e-17)   7   7   3   3
(2.1827964107892e-06,-4.51549588919436e-07)   9   7   3   3
(0.0214821367803621,-0.00787684191569753)  11   7   3   3
(-0.000433578914760684,0.000183650956693349)   1   7   5   3
(0.00278641970712787,-0.00101722420707173)   3   7   5   3
(-3.01924385686019e-06,1.28877143256061e-06)   5   7   5   3
(0.0161005793677889,-1.86131340896821e-06)   7   7   5   3
(-8.77424535625352e-05,1.80954558438821e-05)   9   7   5   3
(0.00175989538085906,-0.000645065285353222)  11   7   5   3
(-0.000162022253279719,7.87251820544608e-06)   1   7   7   3
(0.0132455033163023,3.2507668677742e-18)   3   7   7   3
(0.00671272388158708,4.78958970727894e-06)   5   7   7   3
(0.00543167500938046,0.00197652396085434)   7   7   7   3
(8.42365706020573e-07,-3.14611413031309e-08)   9   7   7   3
(0.000648699194907624,-1.599523802392e-06)  11   7   7   3
(9.36375680334962e-06,-1.55306320119668e-06)   1   7   9   3
(-0.0189115697125991,0.00391218626046724)   3   7   9   3
(-0.0103656280494922,0.00213774242447299)   5   7   9   3
(-0.000224863586559041,7.1919749052639e-05)   9   7   9   3
(2.67773588825958e-05,-5.29814083402718e-06)  11   7   9   3
(-0.00160413082561963,0.000681193150357469)   1   7  11   3
(0.00624210235913246,-0.00228844823698742)   3   7  11   3
(2.21373072100417e-05,-8.30295163770995e-06)   5   7  11   3
(-0.0771789035327834,0.000185651469437692)   7   7  11   3
(-0.00293283904852769,0.00108339257569288)  11   7  11   3
(3.95907667063059e-07,-9.90709506717285e-08)   1   9   1   3
(-4.61687795550692e-07,9.11263323266301e-08)   3   9   1   3
(2.11616160266593e-09,-8.38137547118626e-11)   5   9   1   3
(-1.06770101744743e-07,-1.65701572671141e-08)   7   9   1   3
(0.0145260431786925,-0.000728654852680431)   9   9   1   3
(7.61987797741073e-07,-1.52464039406655e-07)  11   9   1   3
(-2.04777755389454e-07,4.04182895177929e-08)   1   9   3   3
(-1.02399000549521e-07,5.42432671311732e-09)   3   9   3   3
(2.60245524106567e-06,2.78505421458357e-07)   5   9   3   3
(2.18279641083356e-06,4.51549588758983e-07)   7   9   3   3
(0.89647298925502,3.04452951326246e-17)   9   9   3   3
(1.24345823423151e-06,-1.83032957357624e-07)  11   9   3   3
(-1.38969759731676e-06,5.50961750566114e-08)   1   9   5   3
(0.00391000917010207,0.000418430731136226)   3   9   5   3
(0.00213011634538891,0.00023003727735402)   5   9   5   3
(1.4703897453709e-07,1.52793826793327e-08)   7   9   5   3
(0.01621834483543,-1.87606552404383e-06)   9   9   5   3
(-5.1773063963725e-06,-3.97134570878833e-07)  11   9   5   3
(0.00416125080921507,0.000645804568185845)   1   9   7   3
(-0.0189115697125991,-0.00391218626046725)   3   9   7   3
(-1.6645144379994e-05,-1.72965787667945e-06)   5   9   7   3
(-0.000220508234621415,-0.000136147460429327)   7   9   7   3
(0.0054720833641351,0.00199122812001554)   9   9   7   3
(0.00277572484857931,0.000567543214841255)  11   9   7   3
(-0.00663390581691425,0.000332594543771799)   1   9   9   3
(0.040614175497199,1.62725617079392e-18)   3   9   9   3
(0.00556991095262683,3.00630875671679e-06)   5   9   9   3
(0.000393370621480105,0.000143062986978401)   7   9   9   3
(-0.00447484652614756,1.07592822797929e-05)  11   9   9   3
(1.0258176043153e-05,-2.05252858872534e-06)   1   9  11   3
(-3.72583942854798e-05,5.48420892677047e-06)   3   9  11   3
(-1.05362977788769e-07,-8.08281829522328e-09)   5   9  11   3
(-9.21070345970695e-07,-1.88328256522769e-07)   7   9  11   3
(-0.0776739558294462,0.000186842288844749)   9   9  11   3
(5.50814404148328e-06,-8.31064083637123e-07)  11   9  11   3
(-0.0153399556171379,0.00150568349143623)   1  11   1   3
(-0.00362982176290399,0.000173326595251016)   3  11   1   3
(2.63819570857817e-05,-2.74307054163988e-06)   5  11   1   3
(0.000612549529076343,0.000190375488979583)   7  11   1   3
(3.61353185724254e-09,-3.42052107149453e-10)   9  11   1   3
(0.00853443054247691,-0.000428103737950126)  11  11   1   3
(-0.00271467192794041,0.000129645328929885)   1  11   3   3
(-0.0782795997067853,-0.000188299145201883)   3  11   3   3
(0.000875153205617238,-5.04721651085438e-05)   5  11   3   3
(0.0214821367803625,0.00787684191569741)   7  11   3   3
(1.24345823423166e-06,1.83032957357856e-07)   9  11   3   3
(0.635504197370157,8.81739776994642e-17)  11  11   3   3
(-0.00586098108476297,0.000280583070378301)   1  11   5   3
(0.0194513670541079,4.45420938107369e-05)   3  11   5   3
(7.15432719934448e-05,-4.13276824945228e-06)   5  11   5   3
(0.00175359474332591,0.000642757412513985)   7  11   5   3
(0.000983859297833281,0.000146748667010497)   9  11   5   3
(-0.0111360176969896,1.28733099675724e-06)  11  11   5   3
(-0.00194390233168498,-0.000604031629148121)   1  11   7   3
(0.00624210235913246,0.00228844823698742)   3  11   7   3
(-0.000555560635971015,-0.000205786019801981)   5  11   7   3
(0.000507229812711172,0.000425972153489643)   7  11   7   3
(-1.93013376990119e-05,-4.30387504768146e-06)   9  11   7   3
(-0.00356437031220059,-0.00129703318004128)  11  11   7   3
(5.20544494798133e-08,-4.92809731302028e-09)   1  11   9   3
(-3.72583942854797e-05,-5.48420892677046e-06)   3  11   9   3
(0.000962942720287121,0.000143628831000362)   5  11   9   3
(-1.93040875175795e-05,-4.30448827922086e-06)   7  11   9   3
(0.00261003592985436,0.000107584660980357)   9  11   9   3
(-1.20809043406407e-09,-6.46407271370154e-11)  11  11   9   3
(-0.0184435132564812,0.000925283240101559)   1  11  11   3
(0.0854843997426096,3.10359234960838e-17)   3  11  11   3
(-0.000120772030820456,7.20318595896194e-06)   5  11  11   3
(-0.00293926413310806,-0.0010697271151164)   7  11  11   3
(-8.09531592519378e-08,-4.29972814748527e-09)   9  11  11   3
(-0.0502685055300889,0.000120919328571715)  11  11  11   3
(0.000158422214034156,1.49288895627892e-05)   1   1   1   5
(1.38155458451181e-05,3.29538768149888e-06)   3   1   1   5
(0.000221938441995613,5.30377061217777e-21)   5   1   1   5
(8.67514517485526e-07,1.23543601342554e-06)   7   1   1   5
(6.48527924636808e-07,-1.3291416846171e-07)   9   1   1   5
(2.08096099565707e-05,2.97331902794314e-06)  11   1   1   5
(0.0292288447524317,3.37194566687119e-06)   1   1   3   5
(0.00116044125740985,5.83445113425277e-05)   3   1   3   5
(-0.000333304922769292,-1.54516930585794e-05)   5   1   3   5
(-0.000433578914760684,-0.000183650956693348)   7   1   3   5
(-1.38969759731629e-06,-5.50961750563085e-08)   9   1   3   5
(-0.00586098108476297,-0.000280583070378301)  11   1   3   5
(0.882154631240664,-2.8047306533526e-16)   1   1   5   5
(0.00811412387605841,0.000407020085562902)   3   1   5   5
(-3.11833709943497e-06,2.93814713419867e-07)   5   1   5   5
(-0.000151644644685476,-6.39657566779162e-05)   7   1   5   5
(3.17196263377034e-09,1.15372573769313e-09)   9   1   5   5
(-0.00517525682443289,-0.000247156079516801)  11   1   5   5
(-6.54325422652012e-05,-2.51498751855276e-05)   1   1   7   5
(-4.19164639917923e-06,-1.78684015246668e-06)   3   1   7   5
(-0.000558935318381427,-0.000235766319459387)   5   1   7   5
(3.27709256876463e-06,1.40156015395672e-06)   7   1   7   5
(-1.60419027633041e-06,-3.19968148875909e-07)   9   1   7   5
(-3.01193383943148e-07,-1.33750333537433e-07)  11   1   7   5
(1.87704398604907e-08,-3.85306848725844e-09)   1   1   9   5
(2.11616159983784e-09,8.38137536881935e-11)   3   1   9   5
(3.33807424121456e-07,1.21426677308614e-07)   5   1   9   5
(-1.58679678527561e-06,-3.16499019647518e-07)   7   1   9   5
(0.00245890198298536,0.000217464875287027)   9   1   9   5
(-4.23144217489348e-09,6.49280364790835e-10)  11   1   9   5
(0.00154018555693842,8.86202051279347e-05)   1   1  11   5
(2.63819570857819e-05,2.74307054163973e-06)   3   1  11   5
(5.61018929240058e-05,2.67999570813047e-06)   5   1  11   5
(-7.32876376061022e-07,-2.18124606798781e-07)   7   1  11   5
(1.47115087401097e-07,-2.25749633435484e-08)   9   1  11   5
(-1.65151089201248e-05,-1.7434126738345e-06)  11   1  11   5
(2.28715464074812e-05,1.0032640416858e-06)   1   3   1   5
(8.43906401426547e-06,1.03030816404908e-06)   3   3   1   5
(-0.000333304922769291,1.54516930585795e-05)   5   3   1   5
(-7.99132557947229e-07,-1.38626233337311e-06)   7   3   1   5
(-0.000846344591549995,0.000133971330204906)   9   3   1   5
(-3.23912098351716e-05,-2.9779109919486e-06)  11   3   1   5
(0.00116203812631164,-5.81569353902712e-05)   1   3   3   5
(0.0115971948261446,1.34100475331923e-06)   3   3   3   5
(0.010119415242644,5.40138987980382e-19)   5   3   3   5
(0.00278641970712787,0.00101722420707173)   7   3   3   5
(0.00391000917010207,-0.000418430731136226)   9   3   3   5
(0.0194513670541079,-4.45420938107361e-05)  11   3   3   5
(0.00811412387605834,-0.000407020085562986)   1   3   5   5
(0.687757153899653,4.8248864112379e-17)   3   3   5   5
(0.0032779398190959,-3.78563996634428e-07)   5   3   5   5
(0.00111359534895479,0.000405224554928526)   7   3   5   5
(1.6130832549842e-09,1.5509567351864e-10)   9   3   5   5
(-0.0212524901995576,5.1121997245264e-05)  11   3   5   5
(-1.12726081305349e-06,-3.68340594179828e-07)   1   3   7   5
(-3.97863041751167e-05,-1.5212524414803e-05)   3   3   7   5
(0.00221561167709189,0.000806310614030053)   5   3   7   5
(-1.38565238789908e-05,-5.55506259636526e-06)   7   3   7   5
(0.00595965268600447,0.00147218458729012)   9   3   7   5
(9.4445276517881e-06,3.60729448234488e-06)  11   3   7   5
(1.62713446578696e-06,-2.57565829193282e-07)   1   3   9   5
(2.60245524106012e-06,-2.7850542145601e-07)   3   3   9   5
(-2.10263581363516e-06,-2.01617908544166e-07)   5   3   9   5
(0.00590852334222699,0.0014595543496384)   7   3   9   5
(-0.00959045941059066,-0.000365969342448354)   9   3   9   5
(1.06769865126462e-05,-1.17132380779466e-06)  11   3   9   5
(2.47809794677519e-05,1.82143161680705e-07)   1   3  11   5
(0.000875153205617227,5.04721651085437e-05)   3   3  11   5
(-0.000146700991527512,4.62945588711834e-06)   5   3  11   5
(2.44874053638209e-05,9.99381414476561e-06)   7   3  11   5
(-0.000561904441882438,6.16440327812832e-05)   9   3  11   5
(-0.000120156332772387,-6.62491893289873e-06)  11   3  11   5
(4.76758453450587e-08,9.07424264687507e-09)   1   5   1   5
(-8.68054271976879e-06,-8.17936302825202e-07)   3   5   1   5
(-3.11833709943492e-06,-2.93814713419896e-07)   5   5   1   5
(-0.000541430687815306,8.61001236114058e-05)   9   5   1   5
(-8.55124868319545e-09,-1.2972971727909e-09)  11   5   1   5
(-8.68054271976879e-06,-8.17936302825202e-07)   1   5   3   5
(0.00862296686012852,1.82078572411429e-06)   3   5   3   5
(0.00327793981909592,3.78563996636307e-07)   5   5   3   5
(-3.01924385686105e-06,-1.28877143256098e-06)   7   5   3   5
(0.00213011634538891,-0.000230037277354019)   9   5   3   5
(7.15432719934446e-05,4.13276824945236e-06)  11   5   3   5
(-3.11833709943492e-06,-2.93814713419896e-07)   1   5   5   5