 &FCI NORB=10 ,NELEC=12 ,MS2=0,
  ORBSYM=1,1,1,1,1,1,1,1,1,1,
  ISYM=1,
 &END
  3.295839609603e+00    1  1  1  1
 -6.040494896213e-03    2  1  1  1
  8.265029792478e-05    2  1  2  1
  4.102921843533e-01    2  2  1  1
 -2.931369970338e-03    2  2  2  1
  3.225394804666e+00    2  2  2  2
 -1.635076612419e-02    3  1  1  1
  4.781357687261e-04    3  1  2  1
 -7.500768085369e-03    3  1  2  2
  3.099740715142e-03    3  1  3  1
  6.704252728033e-03    3  2  1  1
  8.731029991370e-05    3  2  2  1
 -3.711070585775e-02    3  2  2  2
  5.052818552039e-05    3  2  3  1
  1.454945387173e-02    3  2  3  2
  5.021915741760e-01    3  3  1  1
 -1.699254029983e-03    3  3  2  1
  9.202546921680e-01    3  3  2  2
 -9.190066319680e-03    3  3  3  1
 -2.654558976748e-02    3  3  3  2
  8.263030674288e-01    3  3  3  3
  5.817156770027e-01    4  1  1  1
 -2.556886492089e-03    4  1  2  1
  2.669147710126e-02    4  1  2  2
 -1.142875054471e-02    4  1  3  1
  4.564885669329e-04    4  1  3  2
  3.469392551005e-02    4  1  3  3
  1.584233748560e-01    4  1  4  1
 -9.432731744781e-03    4  2  1  1
 -9.206673616003e-05    4  2  2  1
  4.285633672418e-02    4  2  2  2
 -4.872041876348e-04    4  2  3  1
  4.488805771937e-04    4  2  3  2
  9.221322741745e-03    4  2  3  3
  4.445738580634e-04    4  2  4  1
  9.779953328310e-04    4  2  4  2
 -5.430188187376e-02    4  3  1  1
 -4.420354190922e-04    4  3  2  1
  7.072403223695e-02    4  3  2  2
 -2.967746607719e-03    4  3  3  1
 -2.971971274957e-03    4  3  3  2
  6.056662806109e-02    4  3  3  3
  3.351424003753e-03    4  3  4  1
  2.653646594782e-03    4  3  4  2
  1.695461568529e-02    4  3  4  3
  9.749663120126e-01    4  4  1  1
  7.148262254182e-04    4  4  2  1
  3.146773271260e-01    4  4  2  2
  7.861540968746e-03    4  4  3  1
  3.988344381271e-03    4  4  3  2
  3.707776064209e-01    4  4  3  3
  3.468228331051e-02    4  4  4  1
 -8.843012605944e-03    4  4  4  2
 -5.353887407028e-02    4  4  4  3
  7.651124530194e-01    4  4  4  4
  2.344063141279e-03    5  1  1  1
 -3.092465831732e-06    5  1  2  1
 -2.132382372756e-05    5  1  2  2
  5.670078790821e-06    5  1  3  1
  5.145429321024e-06    5  1  3  2
  4.598267771535e-05    5  1  3  3
  4.627723916343e-04    5  1  4  1
 -6.246947195925e-06    5  1  4  2
 -2.845881615080e-05    5  1  4  3
  3.878807097324e-04    5  1  4  4
  2.800084627664e-02    5  1  5  1
 -6.352132148816e-05    5  2  1  1
  6.713325123173e-07    5  2  2  1
 -3.337621536355e-05    5  2  2  2
  1.695997897157e-06    5  2  3  1
  1.729283945858e-05    5  2  3  2
 -3.385201719552e-05    5  2  3  3
 -6.883822780913e-06    5  2  4  1
  5.702223479046e-07    5  2  4  2
 -6.983125843865e-06    5  2  4  3
 -3.942854526542e-05    5  2  4  4
  3.500239644614e-04    5  2  5  1
  4.554752397976e-04    5  2  5  2
  1.305126658335e-04    5  3  1  1
 -7.447674267303e-07    5  3  2  1
  2.031803030571e-04    5  3  2  2
 -3.881012281377e-06    5  3  3  1
 -9.279267973171e-06    5  3  3  2
  1.749654530656e-04    5  3  3  3
  2.950219419283e-05    5  3  4  1
  6.144838984372e-07    5  3  4  2
  4.675056872974e-06    5  3  4  3
  1.882096129035e-05    5  3  4  4
  3.019984605537e-04    5  3  5  1
  6.104388395739e-04    5  3  5  2
  3.530375644691e-03    5  3  5  3
  1.710447419455e-04    5  4  1  1
  2.907150237472e-06    5  4  2  1
 -1.309460587129e-04    5  4  2  2
  2.505975946189e-05    5  4  3  1
 -8.243784334533e-06    5  4  3  2
 -3.033662613038e-04    5  4  3  3
  6.946039744205e-05    5  4  4  1
 -7.982696489848e-06    5  4  4  2
 -5.096852690513e-05    5  4  4  3
 -1.725420096294e-04    5  4  4  4
 -2.643644530106e-02    5  4  5  1
 -1.103774275152e-03    5  4  5  2
 -4.354444518334e-03    5  4  5  3
  7.400865986634e-02    5  4  5  4
  8.596803492157e-01    5  5  1  1
 -6.922601935773e-04    5  5  2  1
  3.750732602218e-01    5  5  2  2
 -2.786103274947e-03    5  5  3  1
  3.750218678361e-03    5  5  3  2
  4.373452207268e-01    5  5  3  3
  4.291662289024e-02    5  5  4  1
 -2.997443623792e-03    5  5  4  2
 -1.744362753201e-02    5  5  4  3
  6.239694898249e-01    5  5  4  4
 -3.429020696102e-04    5  5  5  1
 -7.731235691502e-05    5  5  5  2
 -4.119193587554e-05    5  5  5  3
  6.786852163695e-04    5  5  5  4
  6.876610927442e-01    5  5  5  5
  9.339040427582e-03    6  1  1  1
 -3.688872885374e-05    6  1  2  1
  2.381840365858e-04    6  1  2  2
 -9.370886523051e-05    6  1  3  1
  2.447242961189e-05    6  1  3  2
  3.574752916085e-04    6  1  3  3
  2.076630227211e-03    6  1  4  1
 -4.038126806877e-06    6  1  4  2
 -5.048484730849e-05    6  1  4  3
  1.426831743229e-03    6  1  4  4
  8.098830719725e-06    6  1  5  1
 -8.986898405543e-08    6  1  5  2
  3.699277254992e-07    6  1  5  3
  4.052264969470e-06    6  1  5  4
  7.051905538301e-04    6  1  5  5
  2.803266276765e-02    6  1  6  1
 -1.811606893632e-04    6  2  1  1
 -1.020939334957e-06    6  2  2  1
  2.614280181730e-04    6  2  2  2
 -4.392442324785e-06    6  2  3  1
  4.298827874466e-05    6  2  3  2
  2.616385396752e-05    6  2  3  3
 -5.902766615796e-06    6  2  4  1
  6.929090595722e-06    6  2  4  2
  1.632271885594e-05    6  2  4  3
 -1.172017577505e-04    6  2  4  4
 -8.530173573035e-08    6  2  5  1
  8.147380102514e-08    6  2  5  2
 -6.574561486121e-08    6  2  5  3
  1.113201205861e-07    6  2  5  4
 -7.542392447819e-05    6  2  5  5
  3.498433871167e-04    6  2  6  1
  4.554950582462e-04    6  2  6  2
 -2.904682111706e-04    6  3  1  1
 -4.296196700634e-06    6  3  2  1
  8.043662277736e-04    6  3  2  2
 -2.477666945280e-05    6  3  3  1
 -1.632811470114e-05    6  3  3  2
  5.424604150068e-04    6  3  3  3
  4.064696729311e-05    6  3  4  1
  1.919369503939e-05    6  3  4  2
  9.325733519646e-05    6  3  4  3
 -2.969942439141e-04    6  3  4  4
 -1.480232460373e-07    6  3  5  1
 -1.046689687626e-07    6  3  5  2
 -6.800557914492e-10    6  3  5  3
  1.262507698595e-07    6  3  5  4
 -1.173853825695e-04    6  3  5  5
  3.019605612046e-04    6  3  6  1
  6.105640993661e-04    6  3  6  2
  3.531219895698e-03    6  3  6  3
  1.787116862145e-03    6  4  1  1
  1.875952311546e-05    6  4  2  1
 -5.691671996557e-04    6  4  2  2
  9.064272814348e-05    6  4  3  1
 -2.938148803442e-05    6  4  3  2
 -6.921775055493e-04    6  4  3  3
  3.000420837903e-04    6  4  4  1
 -6.314623398292e-05    6  4  4  2
 -2.715215747676e-04    6  4  4  3
 -1.613937042218e-04    6  4  4  4
  4.018644150687e-06    6  4  5  1
  2.001509534610e-07    6  4  5  2
  2.149624608506e-07    6  4  5  3
 -6.641330852442e-06    6  4  5  4
  1.449746347513e-04    6  4  5  5
 -2.642729372728e-02    6  4  6  1
 -1.104265910311e-03    6  4  6  2
 -4.355849837640e-03    6  4  6  3
  7.399952093065e-02    6  4  6  4
  8.744285769919e-06    6  5  1  1
  5.733935525700e-08    6  5  2  1
  3.109692405815e-06    6  5  2  2
  4.988671306793e-09    6  5  3  1
 -8.351575422320e-07    6  5  3  2
 -1.086604975111e-06    6  5  3  3
  4.713391752221e-06    6  5  4  1
 -7.007056291761e-09    6  5  4  2
  3.634644303771e-07    6  5  4  3
 -9.230482499993e-06    6  5  4  4
 -4.095238759527e-04    6  5  5  1
 -2.021901071390e-05    6  5  5  2
 -5.991044234651e-05    6  5  5  3
  5.486462257854e-04    6  5  5  4
  1.236926077869e-05    6  5  5  5
 -2.197810238314e-04    6  5  6  1
 -1.324359037419e-05    6  5  6  2
 -3.065410489897e-05    6  5  6  3
  3.378205218498e-04    6  5  6  4
  3.767695804568e-02    6  5  6  5
  8.597083647603e-01    6  6  1  1
 -6.919578780036e-04    6  6  2  1
  3.750665985499e-01    6  6  2  2
 -2.785319323042e-03    6  6  3  1
  3.748906040788e-03    6  6  3  2
  4.373409186003e-01    6  6  3  3
  4.292537454370e-02    6  6  4  1
 -2.998161005519e-03    6  6  4  2
 -1.744519568855e-02    6  6  4  3
  6.239563987245e-01    6  6  4  4
  9.683909107573e-05    6  6  5  1
 -5.081617067871e-05    6  6  5  2
  2.013164092403e-05    6  6  5  3
  2.607708833539e-06    6  6  5  4
  6.123188276597e-01    6  6  5  5
 -1.137755690169e-04    6  6  6  1
 -1.158717071530e-04    6  6  6  2
 -2.372295082393e-04    6  6  6  3
  1.242233642152e-03    6  6  6  4
  1.236771821955e-05    6  6  6  5
  6.876843980394e-01    6  6  6  6
 -3.360097088440e-02    7  1  1  1
  4.047239955502e-05    7  1  2  1
  1.897400326824e-03    7  1  2  2
 -1.123015293332e-04    7  1  3  1
 -2.110050967265e-05    7  1  3  2
 -2.749622690593e-04    7  1  3  3
 -7.347775304077e-03    7  1  4  1
  1.166643694466e-04    7  1  4  2
  4.729971724566e-04    7  1  4  3
 -4.831091636647e-03    7  1  4  4
 -4.273997089003e-05    7  1  5  1
  5.690839686611e-07    7  1  5  2
 -1.549256376279e-07    7  1  5  3
 -5.576261037206e-06    7  1  5  4
 -2.073107647130e-03    7  1  5  5
 -1.466126075546e-04    7  1  6  1
  8.225056753221e-07    7  1  6  2
  1.792799100346e-06    7  1  6  3
 -1.856380391604e-05    7  1  6  4
  1.135745479732e-07    7  1  6  5
 -2.073102777192e-03    7  1  6  6
  5.600147519602e-04    7  1  7  1
 -2.914359114532e-02    7  2  1  1
  8.841605037934e-04    7  2  2  1
 -6.710547515272e-01    7  2  2  2
  1.027495694528e-03    7  2  3  1
  1.505568336041e-02    7  2  3  2
 -1.047878443854e-01    7  2  3  3
 -3.111433319993e-03    7  2  4  1
 -9.731328358589e-03    7  2  4  2
 -1.045760880959e-02    7  2  4  3
 -1.870219648924e-02    7  2  4  4
  1.018640004107e-06    7  2  5  1
  6.810308292372e-05    7  2  5  2
 -5.075362081701e-05    7  2  5  3
  2.110675465157e-05    7  2  5  4
 -2.339397667945e-02    7  2  5  5
 -3.522904736865e-05    7  2  6  1
 -4.028726700068e-05    7  2  6  2
 -1.266332855986e-04    7  2  6  3
  6.483646982974e-05    7  2  6  4
 -2.499131843007e-08    7  2  6  5
 -2.339272036111e-02    7  2  6  6
 -7.772879483057e-06    7  2  7  1
  2.137508698691e-01    7  2  7  2
  2.452797408139e-02    7  3  1  1
 -2.097669764327e-04    7  3  2  1
  7.498884034036e-02    7  3  2  2
 -1.130798457229e-03    7  3  3  1
 -4.861897506033e-03    7  3  3  2
  5.218786525562e-02    7  3  3  3
  3.368924111774e-03    7  3  4  1
  9.614831835575e-04    7  3  4  2
  6.682886849357e-03    7  3  4  3
  1.347592424944e-02    7  3  4  4
 -7.777031023919e-06    7  3  5  1
 -3.154595753044e-05    7  3  5  2
  9.208523242040e-06    7  3  5  3
 -1.131179171768e-05    7  3  5  4
  1.748143381793e-02    7  3  5  5
  5.625663933099e-05    7  3  6  1
  1.736916432545e-05    7  3  6  2
  9.934466598210e-05    7  3  6  3
 -9.302698416163e-05    7  3  6  4
 -3.511180275643e-07    7  3  6  5
  1.747801623643e-02    7  3  6  6
 -2.071952706300e-05    7  3  7  1
 -1.716432504847e-02    7  3  7  2
  2.295693527789e-02    7  3  7  3
 -2.772723858928e-03    7  4  1  1
 -6.438212821832e-05    7  4  2  1
 -8.067312818195e-05    7  4  2  2
 -5.469629531147e-04    7  4  3  1
 -3.926422242567e-04    7  4  3  2
  1.127682453805e-02    7  4  3  3
  1.626300095642e-05    7  4  4  1
  1.379497461870e-04    7  4  4  2
  1.937941686163e-03    7  4  4  3
 -9.829152881463e-04    7  4  4  4
 -1.329292044472e-05    7  4  5  1
 -4.075474471546e-06    7  4  5  2
 -1.318229042978e-06    7  4  5  3
 -1.775397195716e-05    7  4  5  4
  1.715908773143e-03    7  4  5  5
 -2.667613649679e-05    7  4  6  1
 -2.469405498780e-06    7  4  6  2
  1.141352562165e-05    7  4  6  3
 -3.189157974843e-05    7  4  6  4
  4.902269063419e-07    7  4  6  5
  1.716050692651e-03    7  4  6  6
  1.419637662770e-04    7  4  7  1
  5.010316790789e-04    7  4  7  2
  2.847374386965e-03    7  4  7  3
  7.881968327417e-04    7  4  7  4
 -5.059965196099e-04    7  5  1  1
  1.530957190383e-06    7  5  2  1
  3.589205986772e-04    7  5  2  2
  7.516865497279e-06    7  5  3  1
 -1.789954323441e-05    7  5  3  2
  5.959007600400e-05    7  5  3  3
 -6.809636229973e-05    7  5  4  1
  5.567493475331e-06    7  5  4  2
  1.960803836799e-05    7  5  4  3
 -2.368696021955e-04    7  5  4  4
  2.974417259892e-03    7  5  5  1
  5.558330360820e-04    7  5  5  2
  8.396841872739e-04    7  5  5  3
 -4.623450478477e-03    7  5  5  4
 -4.369423201364e-04    7  5  5  5
 -9.489865982561e-07    7  5  6  1
  9.431580318233e-08    7  5  6  2
  1.606944414681e-07    7  5  6  3
  7.420084058299e-07    7  5  6  4
 -9.805094105407e-05    7  5  6  5
 -2.865880547810e-04    7  5  6  6
  2.464054576572e-06    7  5  7  1
  1.039542244712e-05    7  5  7  2
 -3.169579100740e-05    7  5  7  3
 -8.114542099371e-06    7  5  7  4
  1.907703355001e-03    7  5  7  5
 -5.664947257718e-04    7  6  1  1
 -1.072565320962e-06    7  6  2  1
  2.102933182593e-04    7  6  2  2
 -1.554227686462e-06    7  6  3  1
  1.592902877137e-05    7  6  3  2
  1.113624458538e-04    7  6  3  3
 -8.266863141314e-05    7  6  4  1
  5.992546276518e-06    7  6  4  2
  3.575385720256e-05    7  6  4  3
 -1.908282216176e-04    7  6  4  4
 -2.690680404305e-07    7  6  5  1
  1.670416868828e-08    7  6  5  2
 -5.816509012389e-08    7  6  5  3
  7.849065973598e-07    7  6  5  4
 -2.411007554046e-04    7  6  5  5
  2.973395793768e-03    7  6  6  1
  5.557902957589e-04    7  6  6  2
  8.399581853389e-04    7  6  6  3
 -4.623150224974e-03    7  6  6  4
 -7.516046588385e-05    7  6  6  5
 -4.372132721923e-04    7  6  6  6
  7.521271050924e-07    7  6  7  1
 -1.349028246208e-05    7  6  7  2
  6.493512392442e-05    7  6  7  3
 -6.887602837572e-06    7  6  7  4
  2.982856637880e-07    7  6  7  5
  1.907338336913e-03    7  6  7  6
  3.208752384604e-01    7  7  1  1
 -6.655328020251e-04    7  7  2  1
  1.039964316354e+00    7  7  2  2
 -4.503949292237e-03    7  7  3  1
 -1.082533373211e-02    7  7  3  2
  5.825111833684e-01    7  7  3  3
  1.752722094929e-02    7  7  4  1
  1.102408112600e-02    7  7  4  2
  3.765283788301e-02    7  7  4  3
  2.559387111483e-01    7  7  4  4
 -1.586587728631e-05    7  7  5  1
  6.660092649642e-05    7  7  5  2
  5.334406981272e-05    7  7  5  3
 -7.397917185878e-05    7  7  5  4
  3.005444271553e-01    7  7  5  5
  1.399218291054e-04    7  7  6  1
  8.834453602203e-05    7  7  6  2
  3.815856067397e-04    7  7  6  3
 -3.714739242662e-04    7  7  6  4
  2.544821403452e-06    7  7  6  5
  3.005412740386e-01    7  7  6  6
  1.503779602931e-03    7  7  7  1
 -6.104492822331e-02    7  7  7  2
  2.637863820963e-02    7  7  7  3
  2.171448156161e-03    7  7  7  4
  3.318152333331e-04    7  7  7  5
  1.794591692796e-04    7  7  7  6
  7.785006005825e-01    7  7  7  7
 -1.593831250652e-04    8  1  1  1
  2.705179637316e-06    8  1  2  1
 -5.273320005592e-05    8  1  2  2
  1.760302186791e-05    8  1  3  1
  1.337064531983e-06    8  1  3  2
 -4.810646168286e-05    8  1  3  3
 -8.850948736392e-05    8  1  4  1
 -2.571250881150e-06    8  1  4  2
 -1.560954955930e-05    8  1  4  3
  4.989739427882e-05    8  1  4  4
  2.878434704060e-03    8  1  5  1
  5.721641867257e-05    8  1  5  2
  1.267826263927e-04    8  1  5  3
 -2.611773354068e-03    8  1  5  4
 -6.199291534576e-05    8  1  5  5
  3.269186080098e-04    8  1  6  1
  6.490265608460e-06    8  1  6  2
  1.430086458365e-05    8  1  6  3
 -2.967882191495e-04    8  1  6  4
 -3.742024979440e-05    8  1  6  5
 -2.975433618004e-05    8  1  6  6
 -3.766865643208e-07    8  1  7  1
  7.143184332202e-06    8  1  7  2
 -7.412240703006e-06    8  1  7  3
 -3.212995266284e-06    8  1  7  4
  3.067809811233e-04    8  1  7  5
  3.491853417070e-05    8  1  7  6
 -3.082078160283e-05    8  1  7  7
  3.078552044351e-04    8  1  8  1
  4.443054611616e-05    8  2  1  1
 -1.555476273312e-06    8  2  2  1
  1.797303334069e-03    8  2  2  2
 -7.588306536015e-07    8  2  3  1
 -2.908015334722e-05    8  2  3  2
  2.978300146694e-04    8  2  3  3
  5.363125033230e-06    8  2  4  1
  3.072771492231e-05    8  2  4  2
  1.268832869491e-05    8  2  4  3
  2.448540097474e-05    8  2  4  4
  1.893302455598e-04    8  2  5  1
  2.649817398662e-03    8  2  5  2
 -6.410583289284e-04    8  2  5  3
 -6.231066256372e-04    8  2  5  4
  5.699565230088e-06    8  2  5  5
  2.172479059834e-05    8  2  6  1
  3.021805257262e-04    8  2  6  2
 -7.267561177711e-05    8  2  6  3
 -7.110868310802e-05    8  2  6  4
 -2.456351130389e-05    8  2  6  5
  2.024399762787e-05    8  2  6  6
  8.674305761667e-07    8  2  7  1
 -4.546795033436e-04    8  2  7  2
 -7.414982214858e-05    8  2  7  3
 -8.570682889224e-06    8  2  7  4
  2.204352747673e-03    8  2  7  5
  2.511819713464e-04    8  2  7  6
  3.104696243053e-04    8  2  7  7
  6.101329965784e-05    8  2  8  1
  2.323588213877e-02    8  2  8  2
  8.187853623130e-04    8  3  1  1
 -2.557224171243e-06    8  3  2  1
  5.271057566206e-04    8  3  2  2
 -1.560507362449e-05    8  3  3  1
 -3.956705536699e-05    8  3  3  2
 -3.997298200249e-04    8  3  3  3
  9.545962689683e-05    8  3  4  1
  3.823816101080e-06    8  3  4  2
  5.243841268204e-05    8  3  4  3
  4.463822735772e-04    8  3  4  4
 -5.053128732253e-03    8  3  5  1
 -4.970455102313e-03    8  3  5  2
 -9.019084720171e-03    8  3  5  3
  9.186089492704e-03    8  3  5  4
  9.756588280309e-04    8  3  5  5
 -5.743064582688e-04    8  3  6  1
 -5.660946345376e-04    8  3  6  2
 -1.026523347119e-03    8  3  6  3
  1.044158443337e-03    8  3  6  4
  2.719943099084e-04    8  3  6  5
  6.354049723698e-04    8  3  6  6
 -2.026479091760e-06    8  3  7  1
 -2.306890270019e-04    8  3  7  2
  4.371808030109e-04    8  3  7  3
  4.994954426657e-05    8  3  7  4
 -8.337911814091e-03    8  3  7  5
 -9.493136983869e-04    8  3  7  6
 -1.434396967951e-04    8  3  7  7
 -7.926537460447e-04    8  3  8  1
 -2.262124070583e-02    8  3  8  2
  1.153107008587e-01    8  3  8  3
 -3.846427457482e-04    8  4  1  1
 -2.565437437045e-06    8  4  2  1
  4.650951060417e-04    8  4  2  2
 -1.861668000806e-05    8  4  3  1
 -1.998661338734e-05    8  4  3  2
  2.725575057136e-04    8  4  3  3
  2.561869693739e-05    8  4  4  1
  1.728380189537e-05    8  4  4  2
  1.084840362681e-04    8  4  4  3
 -3.961806059294e-04    8  4  4  4
 -3.041129418633e-03    8  4  5  1
 -5.753473401821e-04    8  4  5  2
 -1.531188361319e-03    8  4  5  3
  7.388969562001e-03    8  4  5  4
 -7.922868520718e-06    8  4  5  5
 -3.466600309149e-04    8  4  6  1
 -6.539571682947e-05    8  4  6  2
 -1.737438690221e-04    8  4  6  3
  8.391959566197e-04    8  4  6  4
  1.062073451324e-04    8  4  6  5
 -9.323616989184e-05    8  4  6  6
  4.228275888505e-06    8  4  7  1
 -6.929461345264e-05    8  4  7  2
  5.873662029911e-05    8  4  7  3
  1.448846988062e-05    8  4  7  4
 -1.243523327317e-03    8  4  7  5
 -1.413782217494e-04    8  4  7  6
  2.383165977862e-04    8  4  7  7
 -3.516682924069e-04    8  4  8  1
 -1.681956737496e-03    8  4  8  2
  1.147859163180e-02    8  4  8  3
  1.885185964771e-03    8  4  8  4
  1.769298342669e-02    8  5  1  1
  1.104974499551e-04    8  5  2  1
  1.781041352455e-02    8  5  2  2
  7.612812061259e-04    8  5  3  1
 -1.259282413917e-03    8  5  3  2
 -6.564546705353e-03    8  5  3  3
 -2.704206892034e-04    8  5  4  1
 -3.501480526161e-04    8  5  4  2
 -3.229267415131e-03    8  5  4  3
  1.252452930651e-02    8  5  4  4
  2.528938240667e-05    8  5  5  1
  1.428657049790e-05    8  5  5  2
  4.164369791267e-05    8  5  5  3
 -3.016336565248e-05    8  5  5  4
  3.640033701475e-03    8  5  5  5
  2.672678952089e-05    8  5  6  1
 -2.702905578825e-06    8  5  6  2
 -5.137101139555e-06    8  5  6  3
  8.542657634029e-05    8  5  6  4
  2.510058892473e-05    8  5  6  5
  3.181188395029e-03    8  5  6  6
 -8.977493784249e-05    8  5  7  1
 -1.297829960875e-04    8  5  7  2
 -1.508981183955e-03    8  5  7  3
 -7.464877655638e-04    8  5  7  4
  3.634076028074e-05    8  5  7  5
 -7.366811797206e-07    8  5  7  6
  1.242707035833e-02    8  5  7  7
  5.772256966870e-06    8  5  8  1
  1.087226275405e-05    8  5  8  2
 -1.617804493345e-04    8  5  8  3
 -4.417720687930e-05    8  5  8  4
  4.106238553896e-03    8  5  8  5
  2.011724189488e-03    8  6  1  1
  1.255667892272e-05    8  6  2  1
  2.033327138944e-03    8  6  2  2
  8.653656686328e-05    8  6  3  1
 -1.434027764940e-04    8  6  3  2
 -7.449624178267e-04    8  6  3  3
 -3.064026589674e-05    8  6  4  1
 -3.973131753381e-05    8  6  4  2
 -3.670687430163e-04    8  6  4  3
  1.423622042814e-03    8  6  4  4
 -1.658489498415e-05    8  6  5  1
 -3.434770035503e-06    8  6  5  2
  4.212794543307e-07    8  6  5  3
  5.057810795412e-05    8  6  5  4
  3.612031389927e-04    8  6  5  5
  7.040443509538e-06    8  6  6  1
  3.345950883026e-06    8  6  6  2
  1.843168730119e-05    8  6  6  3
 -1.953695019706e-05    8  6  6  4
  2.306895955613e-04    8  6  6  5
  4.126612582538e-04    8  6  6  6
 -1.020341183520e-05    8  6  7  1
 -1.557069901305e-05    8  6  7  2
 -1.710921214730e-04    8  6  7  3
 -8.492837586241e-05    8  6  7  4
 -2.881976871042e-06    8  6  7  5
  6.664274988894e-06    8  6  7  6
  1.417593606631e-03    8  6  7  7
 -2.230393087297e-06    8  6  8  1
 -1.390925648693e-05    8  6  8  2
  5.874797759632e-05    8  6  8  3
  6.741379310270e-07    8  6  8  4
  3.835866009402e-04    8  6  8  5
  7.806704479675e-04    8  6  8  6
  4.162070856832e-05    8  7  1  1
 -8.973735898894e-07    8  7  2  1
 -1.796671175995e-04    8  7  2  2
 -5.936701478607e-06    8  7  3  1
 -7.229985084512e-05    8  7  3  2
  6.908497940638e-04    8  7  3  3
  1.064897616810e-05    8  7  4  1
 -2.737992425832e-06    8  7  4  2
  4.256917826052e-05    8  7  4  3
  2.109056363471e-05    8  7  4  4
  1.400430192420e-03    8  7  5  1
  2.876079668390e-03    8  7  5  2
  1.033227943426e-03    8  7  5  3
 -3.900221477271e-03    8  7  5  4
 -9.101482407252e-05    8  7  5  5
  1.597188942990e-04    8  7  6  1
  3.275908617957e-04    8  7  6  2
  1.181593208667e-04    8  7  6  3
 -4.442693214188e-04    8  7  6  4
 -9.967555682944e-05    8  7  6  5
 -4.652424836388e-06    8  7  6  6
 -1.033517019248e-06    8  7  7  1
  3.830952935101e-05    8  7  7  2
 -2.162779053364e-04    8  7  7  3
  8.591510008283e-06    8  7  7  4
  6.867428310641e-03    8  7  7  5
  7.823964904162e-04    8  7  7  6
  1.058735290237e-04    8  7  7  7
  2.428676100186e-04    8  7  8  1
  2.116941333177e-02    8  7  8  2
 -4.856266600620e-02    8  7  8  3
 -3.916238411373e-03    8  7  8  4
  4.625997202142e-05    8  7  8  5
 -9.414397158261e-06    8  7  8  6
  6.779947697877e-02    8  7  8  7
  3.776214617125e-01    8  8  1  1
 -9.459741517264e-04    8  8  2  1
  8.529514374331e-01    8  8  2  2
 -5.736646421974e-03    8  8  3  1
 -1.878852797168e-02    8  8  3  2
  6.654617397555e-01    8  8  3  3
  2.127357393507e-02    8  8  4  1
  8.072777086058e-03    8  8  4  2
  4.414825691446e-02    8  8  4  3
  2.972667404568e-01    8  8  4  4
 -7.834048095320e-05    8  8  5  1
 -5.289004967367e-05    8  8  5  2
 -6.237137821248e-05    8  8  5  3
 -1.053803115677e-05    8  8  5  4
  3.571471320657e-01    8  8  5  5
  1.841295519243e-04    8  8  6  1
  4.766666082104e-05    8  8  6  2
  3.952786477199e-04    8  8  6  3
 -4.688673493967e-04    8  8  6  4
  9.497675061532e-04    8  8  6  5
  3.489493854875e-01    8  8  6  6
  5.604824438665e-04    8  8  7  1
 -5.384759665153e-02    8  8  7  2
  1.023452946335e-02    8  8  7  3
  3.844087597686e-03    8  8  7  4
  3.541085915752e-05    8  8  7  5
  1.055927333591e-04    8  8  7  6
  6.292433474568e-01    8  8  7  7
 -4.621553497281e-05    8  8  8  1
 -1.493877926573e-04    8  8  8  2
  1.104807245709e-03    8  8  8  3
  4.118257029854e-04    8  8  8  4
  3.641090270867e-03    8  8  8  5
  4.181616750588e-04    8  8  8  6
 -4.548154260362e-04    8  8  8  7
  6.876559743042e-01    8  8  8  8
 -2.257399266586e-04    9  1  1  1
 -2.901055068150e-07    9  1  2  1
 -2.780435250643e-05    9  1  2  2
  2.225342449419e-06    9  1  3  1
  4.108999722012e-06    9  1  3  2
 -5.167217844197e-06    9  1  3  3
 -7.545603799528e-05    9  1  4  1
  8.780998493202e-07    9  1  4  2
  1.503553896917e-06    9  1  4  3
  1.589196788739e-05    9  1  4  4
 -3.280317033202e-04    9  1  5  1
 -6.519931737979e-06    9  1  5  2
 -1.446375706634e-05    9  1  5  3
  2.976364294483e-04    9  1  5  4
 -1.391630488045e-05    9  1  5  5
  2.877467020636e-03    9  1  6  1
  5.721474729361e-05    9  1  6  2
  1.267956788232e-04    9  1  6  3
 -2.611632375032e-03    9  1  6  4
 -1.611413643149e-05    9  1  6  5
 -8.875599958545e-05    9  1  6  6
  1.008944125165e-06    9  1  7  1
  2.665202967550e-06    9  1  7  2
  3.791246634575e-06    9  1  7  3
 -2.978467449888e-08    9  1  7  4
 -3.493670943125e-05    9  1  7  5
  3.067407243074e-04    9  1  7  6
 -1.577093586400e-05    9  1  7  7
  1.526081706727e-08    9  1  8  1
  7.208544717142e-10    9  1  8  2
  4.982971015159e-08    9  1  8  3
  1.936359096870e-08    9  1  8  4
 -2.744184949349e-06    9  1  8  5
  7.709192584268e-07    9  1  8  6
  6.750094837492e-09    9  1  8  7
 -8.842505685716e-06    9  1  8  8
  3.077521215943e-04    9  1  9  1
 -3.731690300473e-05    9  2  1  1
 -5.063696230332e-06    9  2  2  1
  3.837801676439e-03    9  2  2  2
  3.738592792786e-07    9  2  3  1
  7.988012312802e-05    9  2  3  2
  2.859575688300e-04    9  2  3  3
  8.800335951815e-07    9  2  4  1
  4.169972090175e-05    9  2  4  2
  3.501859501733e-05    9  2  4  3
 -2.395902760945e-05    9  2  4  4
 -2.154998070641e-05    9  2  5  1
 -3.015010434620e-04    9  2  5  2
  7.322804109129e-05    9  2  5  3
  7.104143475393e-05    9  2  5  4
 -2.870740338654e-05    9  2  5  5
  1.893143417703e-04    9  2  6  1
  2.650101431901e-03    9  2  6  2
 -6.405142015632e-04    9  2  6  3
 -6.228203187086e-04    9  2  6  4
 -7.273090086303e-06    9  2  6  5
 -7.782414462221e-05    9  2  6  6
  1.120593092335e-06    9  2  7  1
 -1.018003492812e-03    9  2  7  2
  2.042881852350e-04    9  2  7  3
 -2.101326263753e-05    9  2  7  4
 -2.502376953961e-04    9  2  7  5
  2.204395308439e-03    9  2  7  6
  7.483209988527e-04    9  2  7  7
 -1.449196685268e-08    9  2  8  1
  3.334803205571e-06    9  2  8  2
 -4.206325392349e-07    9  2  8  3
  1.834268361035e-07    9  2  8  4
  4.315659646136e-05    9  2  8  5
  6.845008017718e-06    9  2  8  6
  1.612963049377e-07    9  2  8  7
  4.609202849996e-04    9  2  8  8
  6.095266939818e-05    9  2  9  1
  2.323973578012e-02    9  2  9  2
  2.590433829585e-04    9  3  1  1
  7.001335293187e-06    9  3  2  1
  4.507560592841e-04    9  3  2  2
  3.155691540641e-06    9  3  3  1
 -3.218034325782e-04    9  3  3  2
  1.154817503507e-04    9  3  3  3
  6.262208219545e-05    9  3  4  1
  1.526987863845e-05    9  3  4  2
  1.069255591110e-04    9  3  4  3
 -2.012962823710e-05    9  3  4  4
  5.753253779066e-04    9  3  5  1
  5.660020890094e-04    9  3  5  2
  1.027414406327e-03    9  3  5  3
 -1.048376019644e-03    9  3  5  4
  1.273576547960e-04    9  3  5  5
 -5.053118709690e-03    9  3  6  1
 -4.970164262854e-03    9  3  6  2
 -9.019232361375e-03    9  3  6  3
  9.184565646094e-03    9  3  6  4
  1.701069455987e-04    9  3  6  5
  6.713663337678e-04    9  3  6  6
  1.301805102694e-05    9  3  7  1
  1.796501847513e-04    9  3  7  2
 -3.921310019645e-04    9  3  7  3
  3.574110455821e-05    9  3  7  4
  9.494019526816e-04    9  3  7  5
 -8.337269883434e-03    9  3  7  6
  5.340569656255e-04    9  3  7  7
  4.785601526723e-08    9  3  8  1
 -1.505242042007e-06    9  3  8  2
  1.082777581658e-06    9  3  8  3
  8.717157750401e-07    9  3  8  4
 -1.106161671090e-05    9  3  8  5
 -7.690656688293e-05    9  3  8  6
 -2.641938951137e-06    9  3  8  7
  3.750402145401e-05    9  3  8  8
 -7.924850437179e-04    9  3  9  1
 -2.261991927317e-02    9  3  9  2
  1.153144612793e-01    9  3  9  3
 -2.365188387452e-04    9  4  1  1
 -1.704363424721e-07    9  4  2  1
  4.596934149516e-05    9  4  2  2
 -1.124499670869e-05    9  4  3  1
 -2.597677389676e-05    9  4  3  2
  1.732915936362e-04    9  4  3  3
  2.445275671400e-05    9  4  4  1
  8.246709664892e-06    9  4  4  2
  7.220729374923e-05    9  4  4  3
 -3.167776939496e-04    9  4  4  4
  3.460185229013e-04    9  4  5  1
  6.544280258214e-05    9  4  5  2
  1.742889713046e-04    9  4  5  3
 -8.423102879356e-04    9  4  5  4
 -5.578244744807e-05    9  4  5  5
 -3.041329151763e-03    9  4  6  1
 -5.752400782144e-04    9  4  6  2
 -1.530931017487e-03    9  4  6  3
  7.387003465828e-03    9  4  6  4
  4.265037280095e-05    9  4  6  5
  1.566116775023e-04    9  4  6  6
  5.464488988247e-06    9  4  7  1
 -1.492711286162e-05    9  4  7  2
 -1.724339225895e-05    9  4  7  3
  1.412146189713e-05    9  4  7  4
  1.414799934980e-04    9  4  7  5
 -1.243568566282e-03    9  4  7  6
  6.189196984586e-06    9  4  7  7
 -5.673523784924e-08    9  4  8  1
 -2.232385353393e-07    9  4  8  2
  8.106099109360e-07    9  4  8  3
  5.637373778038e-07    9  4  8  4
 -2.913191280120e-05    9  4  8  5
 -1.670582065449e-05    9  4  8  6
 -2.658215774234e-07    9  4  8  7
  5.335329109733e-05    9  4  8  8
 -3.515142590869e-04    9  4  9  1
 -1.682237954558e-03    9  4  9  2
  1.147897324837e-02    9  4  9  3
  1.884957821243e-03    9  4  9  4
 -2.017600808310e-03    9  5  1  1
 -1.258084901814e-05    9  5  2  1
 -2.026369479081e-03    9  5  2  2
 -8.667778716267e-05    9  5  3  1
  1.434443016136e-04    9  5  3  2
  7.481622819516e-04    9  5  3  3
  3.044738035927e-05    9  5  4  1
  3.990043244902e-05    9  5  4  2
  3.677720761696e-04    9  5  4  3
 -1.427559473048e-03    9  5  4  4
  1.349671180198e-05    9  5  5  1
  1.231122417607e-06    9  5  5  2
  5.828471612572e-06    9  5  5  3
 -3.238181330526e-05    9  5  5  4
 -4.170828169975e-04    9  5  5  5
  1.338681772797e-06    9  5  6  1
  2.910519452285e-06    9  5  6  2
  1.135929478719e-05    9  5  6  3
 -1.745669976142e-05    9  5  6  4
  2.296244252047e-04    9  5  6  5
 -3.646445588005e-04    9  5  6  6
  1.022343115442e-05    9  5  7  1
  1.489967245521e-05    9  5  7  2
  1.716845822796e-04    9  5  7  3
  8.489746860134e-05    9  5  7  4
  4.889505170931e-06    9  5  7  5
  9.761017034746e-06    9  5  7  6
 -1.413578334210e-03    9  5  7  7
  4.563667235638e-07    9  5  8  1
  1.657880869694e-05    9  5  8  2
 -5.683101380077e-05    9  5  8  3
 -1.255210977837e-05    9  5  8  4
 -3.834337435592e-04    9  5  8  5
  6.931401762996e-04    9  5  8  6