 &FCI NORB=   4,NELEC= 4,MS2=0,
  ORBSYM=1,1,1,1,
  ISYM=1,
 &END
 0.5856710155905083    1    1    1    1
 0.002299780698223953    1    1    2    1
 0.1245221755771899    1    1    2    2
 0.0009882261920689697    1    1    3    1
 0.0002395687143864704    1    1    3    2
 0.2420930358678512    1    1    3    3
 0.0004353358669743395    1    1    4    1
 0.003307290566891161    1    1    4    2
 0.002835597548166284    1    1    4    3
 0.2447321656698078    1    1    4    4
 0.002299780698223954    2    1    1    1
 0.0001179842245450361    2    1    2    1
 0.001888678035047909    2    1    2    2
 0.0001079555762266225    2    1    3    1
 -1.196552751185193e-05    2    1    3    2
 0.0008510681765541888    2    1    3    3
 0.0002696250021951778    2    1    4    1
 0.0002366651258424169    2    1    4    2
 9.996040764171006e-06    2    1    4    3
 -0.002835597548166053    2    1    4    4
 0.1245221755771899    2    2    1    1
 0.001888678035047907    2    2    2    1
 0.5775700325380113    2    2    2    2
 -0.0007465980308343638    2    2    3    1
 -0.0007035530997707573    2    2    3    2
 0.08274663397237172    2    2    3    3
 0.003429734825636955    2    2    4    1
 -0.0005167265646940459    2    2    4    2
 -0.0008510681765540261    2    2    4    3
 0.2420930358678509    2    2    4    4
 0.0009882261920689842    3    1    1    1
 0.0001079555762266225    3    1    2    1
 -0.000746598030834365    3    1    2    2
 0.002751403888300949    3    1    3    1
 2.854639085807452e-05    3    1    3    2
 0.0005167265646938034    3    1    3    3
 0.000953968295225267    3    1    4    1
 -8.517514164434206e-05    3    1    4    2
 0.000236665125842415    3    1    4    3
 -0.003307290566891255    3    1    4    4
 0.0002395687143864705    3    2    1    1
 -1.196552751185193e-05    3    2    2    1
 -0.0007035530997707576    3    2    2    2
 2.854639085807448e-05    3    2    3    1
 5.346472114811507e-06    3    2    3    2
 -0.000703553099770719    3    2    3    3
 -2.113811639004846e-05    3    2    4    1
 -2.85463908580727e-05    3    2    4    2
 1.196552751185195e-05    3    2    4    3
 0.0002395687143864584    3    2    4    4
 0.2420930358678512    3    3    1    1
 0.0008510681765541881    3    3    2    1
 0.08274663397237172    3    3    2    2
 0.0005167265646938172    3    3    3    1
 -0.0007035530997707191    3    3    3    2
 0.5775700325380113    3    3    3    3
 0.003429734825636961    3    3    4    1
 0.0007465980308343175    3    3    4    2
 -0.001888678035047591    3    3    4    3
 0.1245221755771898    3    3    4    4
 0.0004353358669743554    4    1    1    1
 0.0002696250021951775    4    1    2    1
 0.003429734825636967    4    1    2    2
 0.0009539682952252669    4    1    3    1
 -2.113811639004844e-05    4    1    3    2
 0.003429734825636966    4    1    3    3
 0.002887965604496211    4    1    4    1
 -0.0009539682952252673    4    1    4    2
 -0.0002696250021951757    4    1    4    3
 0.0004353358669743065    4    1    4    4
 0.003307290566891162    4    2    1    1
 0.0002366651258424168    4    2    2    1
 -0.0005167265646940329    4    2    2    2
 -8.517514164434133e-05    4    2    3    1
 -2.854639085807267e-05    4    2    3    2
 0.0007465980308343167    4    2    3    3
 -0.0009539682952252661    4    2    4    1
 0.002751403888300942    4    2    4    2
 0.0001079555762266225    4    2    4    3
 -0.0009882261920692052    4    2    4    4
 0.002835597548166283    4    3    1    1
 9.996040764171016e-06    4    3    2    1
 -0.0008510681765540278    4    3    2    2
 0.0002366651258424149    4    3    3    1
 1.196552751185195e-05    4    3    3    2
 -0.001888678035047593    4    3    3    3
 -0.0002696250021951758    4    3    4    1
 0.0001079555762266228    4    3    4    2
 0.0001179842245450326    4    3    4    3
 -0.002299780698223611    4    3    4    4
 0.2447321656698079    4    4    1    1
 -0.002835597548166055    4    4    2    1
 0.242093035867851    4    4    2    2
 -0.003307290566891245    4    4    3    1
 0.0002395687143864586    4    4    3    2
 0.1245221755771898    4    4    3    3
 0.0004353358669743122    4    4    4    1
 -0.0009882261920692128    4    4    4    2
 -0.002299780698223613    4    4    4    3
 0.5856710155905072    4    4    4    4
 -1.100241940337847    1    1  0  0
 0.006165716158266429    2    1  0  0
 -0.9384450090650525    2    2  0  0
 -0.0475650934715742    3    1  0  0
 -0.0008459337303992766    3    2  0  0
 -0.9384450090650521    3    3  0  0
 0.04437214529068741    4    1  0  0
 0.04756509347157478    4    2  0  0
 -0.00616571615826742    4    3  0  0
 -1.100241940337846    4    4  0  0
 1.083333333333333  0  0  0  0
