 &FCI NORB=   4,NELEC= 4,MS2=0,
  ORBSYM=1,1,1,1,
  ISYM=1,
 &END
 0.8310436644925169    1    1    1    1
 -0.01184119276207575    1    1    2    1
 0.4564650031928845    1    1    2    2
 0.002058500612686755    1    1    3    1
 -0.01263691597092178    1    1    3    2
 0.2520815332464452    1    1    3    3
 -0.0005950617018219466    1    1    4    1
 0.002136510812908541    1    1    4    2
 -0.002502198408287397    1    1    4    3
 0.1669778653895017    1    1    4    4
 -0.01184119276207587    2    1    1    1
 0.01010744748389574    2    1    2    1
 -0.0087313194727443    2    1    2    2
 -0.001108529523007341    2    1    3    1
 -0.001669014874657907    2    1    3    2
 -0.0107726020513876    2    1    3    3
 0.0001616798291231687    2    1    4    1
 0.0003641097485285205    2    1    4    2
 0.000634974279197111    2    1    4    3
 -0.002502198408287367    2    1    4    4
 0.4564650031928845    2    2    1    1
 -0.008731319472744328    2    2    2    1
 0.9029450741220473    2    2    2    2
 -0.006741891515537667    2    2    3    1
 -0.01456249538135693    2    2    3    2
 0.4784279947678778    2    2    3    3
 0.001323495787870367    2    2    4    1
 0.002038633126007815    2    2    4    2
 -0.0107726020513877    2    2    4    3
 0.2520815332464439    2    2    4    4
 0.002058500612686789    3    1    1    1
 -0.001108529523007362    3    1    2    1
 -0.006741891515537598    3    1    2    2
 0.000451738355132254    3    1    3    1
 -0.001014941311794769    3    1    3    2
 0.002038633126008557    3    1    3    3
 -5.419119455891451e-05    3    1    4    1
 1.691088995585364e-05    3    1    4    2
 0.0003641097485285262    3    1    4    3
 0.002136510812908932    3    1    4    4
 -0.01263691597092176    3    2    1    1
 -0.001669014874657888    3    2    2    1
 -0.01456249538135709    3    2    2    2
 -0.00101494131179474    3    2    3    1
 0.01123297673302493    3    2    3    2
 -0.01456249538135765    3    2    3    3
 6.323631313106816e-05    3    2    4    1
 -0.001014941311794697    3    2    4    2
 -0.001669014874657998    3    2    4    3
 -0.01263691597092207    3    2    4    4
 0.2520815332464452    3    3    1    1
 -0.01077260205138774    3    3    2    1
 0.4784279947678777    3    3    2    2
 0.002038633126008513    3    3    3    1
 -0.01456249538135748    3    3    3    2
 0.9029450741220528    3    3    3    3
 0.001323495787870425    3    3    4    1
 -0.00674189151553835    3    3    4    2
 -0.008731319472744196    3    3    4    3
 0.456465003192885    3    3    4    4
 -0.0005950617018219572    4    1    1    1
 0.0001616798291231796    4    1    2    1
 0.001323495787870328    4    1    2    2
 -5.419119455891935e-05    4    1    3    1
 6.323631313109087e-05    4    1    3    2
 0.001323495787870386    4    1    3    3
 1.743690968493027e-05    4    1    4    1
 -5.419119455891638e-05    4    1    4    2
 0.0001616798291231687    4    1    4    3
 -0.0005950617018218229    4    1    4    4
 0.002136510812908526    4    2    1    1
 0.0003641097485285007    4    2    2    1
 0.00203863312600791    4    2    2    2
 1.69108899558679e-05    4    2    3    1
 -0.00101494131179476    4    2    3    2
 -0.006741891515538201    4    2    3    3
 -5.419119455891592e-05    4    2    4    1
 0.0004517383551322379    4    2    4    2
 -0.001108529523007301    4    2    4    3
 0.002058500612686059    4    2    4    4
 -0.002502198408287335    4    3    1    1
 0.000634974279197131    4    3    2    1
 -0.0107726020513877    4    3    2    2
 0.0003641097485284836    4    3    3    1
 -0.001669014874657862    4    3    3    2
 -0.008731319472744577    4    3    3    3
 0.0001616798291231753    4    3    4    1
 -0.001108529523007315    4    3    4    2
 0.01010744748389564    4    3    4    3
 -0.01184119276207517    4    3    4    4
 0.1669778653895017    4    4    1    1
 -0.002502198408287451    4    4    2    1
 0.2520815332464441    4    4    2    2
 0.002136510812909014    4    4    3    1
 -0.01263691597092232    4    4    3    2
 0.4564650031928854    4    4    3    3
 -0.0005950617018218396    4    4    4    1
 0.002058500612686101    4    4    4    2
 -0.01184119276207512    4    4    4    3
 0.8310436644925132    4    4    4    4
 -1.264349195262228    1    1  0  0
 -0.2792527600154072    2    1  0  0
 -1.504594789947644    2    2  0  0
 0.06739809454799096    3    1  0  0
 -0.2957146668700228    3    2  0  0
 -1.50459478994765    3    3  0  0
 -0.01625179798556789    4    1  0  0
 0.06739809454799324    4    2  0  0
 -0.2792527600154074    4    3  0  0
 -1.264349195262225    4    4  0  0
 2.29310124732  0  0  0  0
