 &FCI NORB=26,NELEC=10,MS2=0,
  ORBSYM=1,5,1,3,2,6,7,5,1,3,2,1,6,7,5,5,1,4,3,2,5,8,1,6,7,5,
  ISYM=1,
 &END
0.8194510896068844    1  1  1  1
0.05365494433674779    2  1  2  1
0.5188172929829871    2  2  1  1
0.5359589938986306    2  2  2  2
0.143817262043553    3  1  1  1
0.005298496513130335    3  1  2  2
0.06695354327334593    3  1  3  1
-0.09129006086125055    3  2  2  1
0.2093179520137492    3  2  3  2
0.5667475310190588    3  3  1  1
0.5404257646642507    3  3  2  2
0.03265617127973348    3  3  3  1
0.562701895239186    3  3  3  3
0.101210203437377    4  1  4  1
0.04195470171182641    4  2  4  2
-0.01133642595224131    4  3  4  1
0.02367013024046417    4  3  4  3
0.6328802014968795    4  4  1  1
0.4923046025106119    4  4  2  2
0.06216824339101037    4  4  3  1
0.5038513276723614    4  4  3  3
0.57551303941262    4  4  4  4
0.1012102034373769    5  1  5  1
0.04195470171182636    5  2  5  2
-0.0113364259522413    5  3  5  1
0.02367013024046415    5  3  5  3
0.02321961747663337    5  4  5  4
0.6328802014968793    5  5  1  1
0.4923046025106116    5  5  2  2
0.06216824339101034    5  5  3  1
0.5038513276723611    5  5  3  3
0.529073804459353    5  5  4  4
0.5755130394126194    5  5  5  5
0.03391972330974539    6  1  5  2
0.03181322350817667    6  1  6  1
0.06420374639883615    6  2  5  1
-0.03313744079831816    6  2  5  3
0.07229321666721239    6  2  6  2
-0.03411160933217589    6  3  5  2
-0.02210347883236724    6  3  6  1
0.03598687030469522    6  3  6  3
0.01366489100068794    6  4  6  4
0.08028892950682823    6  5  2  1
-0.13332398584354    6  5  3  2
0.1371672363199852    6  5  6  5
0.5299108613564864    6  6  1  1
0.478583083803967    6  6  2  2
0.02580225990155652    6  6  3  1
0.4808414547926104    6  6  3  3
0.4719349787274419    6  6  4  4
0.5076708345927384    6  6  5  5
0.4790950993059094    6  6  6  6
0.03391972330974549    7  1  4  2
0.03181322350817682    7  1  7  1
0.06420374639883626    7  2  4  1
-0.0331374407983182    7  2  4  3
0.0722932166672125    7  2  7  2
-0.03411160933217593    7  3  4  2
-0.02210347883236728    7  3  7  1
0.03598687030469525    7  3  7  3
0.08028892950682844    7  4  2  1
-0.1333239858435403    7  4  3  2
0.1098374543186096    7  4  6  5
0.1371672363199858    7  4  7  4
0.01366489100068796    7  5  6  4
0.01366489100068797    7  5  7  5
0.01786792793264836    7  6  5  4
0.01824344159665045    7  6  7  6
0.5299108613564876    7  7  1  1
0.4785830838039677    7  7  2  2
0.02580225990155673    7  7  3  1
0.4808414547926113    7  7  3  3
0.5076708345927397    7  7  4  4
0.4719349787274427    7  7  5  5
0.4426082161126093    7  7  6  6
0.479095099305911    7  7  7  7
0.03226385340571016    8  1  2  1
-0.0380198943984278    8  1  3  2
0.04912826765279738    8  1  6  5
0.04912826765279746    8  1  7  4
0.0271636687998159    8  1  8  1
0.09853973944125892    8  2  1  1
0.05333950121775632    8  2  2  2
0.01730344649709586    8  2  3  1
0.05275270642314997    8  2  3  3
0.07929108757411532    8  2  4  4
0.0792910875741157    8  2  5  5
0.05963585104866505    8  2  6  6
0.05963585104866554    8  2  7  7
0.0343272128963255    8  2  8  2
0.006780476940186892    8  3  2  1
-0.0222108549101783    8  3  3  2
0.009494662069481359    8  3  6  5
0.009494662069481264    8  3  7  4
-0.0009566866643470075    8  3  8  1
1.077053257988314e-15    8  3  8  2
0.02329647240437381    8  3  8  3
0.01975435936593517    8  4  4  2
0.01958010931573127    8  4  7  1
-0.01001742479359023    8  4  7  3
0.01427496173052527    8  4  8  4
0.01975435936593514    8  5  5  2
0.01958010931573123    8  5  6  1
-0.01001742479359024    8  5  6  3
0.01427496173052526    8  5  8  5
0.03243648156820524    8  6  5  1
-0.005386552666473952    8  6  5  3
0.02123836733154005    8  6  6  2
0.01759621549231093    8  6  8  6
0.03243648156820536    8  7  4  1
-0.005386552666474019    8  7  4  3
0.02123836733154014    8  7  7  2
0.017596215492311    8  7  8  7
0.3721367173075265    8  8  1  1
0.3673445074473781    8  8  2  2
0.008855070941957482    8  8  3  1
1.241860816226828e-15    8  8  3  2
0.3738811855843351    8  8  3  3
0.3504790921860312    8  8  4  4
0.3504790921860336    8  8  5  5
0.3444627458911886    8  8  6  6
0.3444627458911894    8  8  7  7
-2.658047953547446e-15    8  8  8  1
0.00172080984157727    8  8  8  2
3.287040863974849e-15    8  8  8  3
0.3491155609545027    8  8  8  8
-0.0900866572314975    9  1  1  1
-0.02281299936112078    9  1  2  2
-0.0409969082077903    9  1  3  1
-0.0452542717805619    9  1  3  3
-0.03348006592687159    9  1  4  4
-0.03348006592687157    9  1  5  5
-0.02272408928726281    9  1  6  6
-0.02272408928726299    9  1  7  7
-0.005863971654223959    9  1  8  2
-0.01798814721908385    9  1  8  8
0.03968290278744962    9  1  9  1
0.002070411216185025    9  2  2  1
0.006760632003161615    9  2  3  2
0.004490183367311073    9  2  6  5
0.004490183367311131    9  2  7  4
0.007044143528703059    9  2  8  1
-0.0174650576444219    9  2  8  3
1.22247829662174e-15    9  2  8  8
0.01575157033692064    9  2  9  2
-0.1300967423495697    9  3  1  1
-0.0491614249527069    9  3  2  2
-0.03931168734245256    9  3  3  1
-0.06255031762343542    9  3  3  3
-0.08308266218811214    9  3  4  4
-0.08308266218811215    9  3  5  5
-0.05696654938693133    9  3  6  6
-0.05696654938693164    9  3  7  7
-0.03438379193099668    9  3  8  2
-0.00271560836859156    9  3  8  8
0.02361534687541982    9  3  9  1
0.04664693028964224    9  3  9  3
0.02453274246096688    9  4  4  1
-0.01008991412086626    9  4  4  3
0.02021850601188671    9  4  7  2
0.01081028565736756    9  4  8  7
0.01983940837162951    9  4  9  4
0.02453274246096691    9  5  5  1
-0.01008991412086625    9  5  5  3
0.02021850601188671    9  5  6  2
0.01081028565736755    9  5  8  6
0.01983940837162954    9  5  9  5
0.005119128997196141    9  6  5  2
0.003815878686415298    9  6  6  1
-0.00230972997608938    9  6  6  3
0.005493308412860714    9  6  8  5
0.00714213205166257    9  6  9  6
0.005119128997196173    9  7  4  2
0.003815878686415323    9  7  7  1
-0.002309729976089437    9  7  7  3
0.005493308412860709    9  7  8  4
0.007142132051662554    9  7  9  7
0.03515269488737612    9  8  2  1
-0.08831715345641666    9  8  3  2
0.05319806749833439    9  8  6  5
0.05319806749833458    9  8  7  4
0.006109249353011198    9  8  8  1
0.03590874067717945    9  8  8  3
7.728407204458607e-15    9  8  8  8
-0.02365901714212256    9  8  9  2
0.08617762197323832    9  8  9  8
0.4688577692156295    9  9  1  1
0.3960239036306915    9  9  2  2
0.03802747281491669    9  9  3  1
0.4117963174845357    9  9  3  3
0.4163123653067468    9  9  4  4
0.4163123653067469    9  9  5  5
0.384751292521711    9  9  6  6
0.3847512925217116    9  9  7  7
0.0274963826664781    9  9  8  2
0.3376025061528558    9  9  8  8
-0.02550552924033531    9  9  9  1
-0.03683381419817963    9  9  9  3
0.3714058599411734    9  9  9  9
0.03966208141344463    10  1  4  1
0.003600365189365086    10  1  4  3
0.01794261134277909    10  1  7  2
0.01423030972450588    10  1  8  7
-0.001540306642511802    10  1  9  4
0.02827255590166796    10  1  10  1
0.009650123620739097    10  2  4  2
0.009152014835238694    10  2  7  1
-0.003143109904564208    10  2  7  3
0.00838310012172129    10  2  8  4
0.00336521055079613    10  2  9  7
0.01230959783373699    10  2  10  2
0.01732629112302806    10  3  4  1
0.00229387033685575    10  3  4  3
0.007567280268180348    10  3  7  2
5.663131846511506e-05    10  3  8  7
0.002205348428510116    10  3  9  4
0.003639091789447912    10  3  10  1
0.01195408873817323    10  3  10  3
0.1599772952274834    10  4  1  1
0.09026479552146403    10  4  2  2
0.03682818619720946    10  4  3  1
0.1021906180728134    10  4  3  3
0.1139121133990997    10  4  4  4
0.1061748640443533    10  4  5  5
0.08356090709637166    10  4  6  6
0.08757637809997587    10  4  7  7
0.03241125174022738    10  4  8  2
0.03972493539256162    10  4  8  8
-0.03217619509155191    10  4  9  1
-0.0398227572015384    10  4  9  3
0.05228989193885627    10  4  9  9
0.07638263777456203    10  4  10  4
0.003868624677373169    10  5  5  4
0.002007735501801864    10  5  7  6
0.008192848869027941    10  5  10  5
0.002426082001610949    10  6  6  4
0.002426082001610969    10  6  7  5
0.006524776673881033    10  6  10  6
0.02266719808874585    10  7  2  1
-0.02440973432649946    10  7  3  2
0.03010717807696652    10  7  6  5
0.0349593420801887    10  7  7  4
0.02276759711987862    10  7  8  1
-0.008823049528882512    10  7  8  3
0.01124262226233146    10  7  9  2
-0.01213914172244862    10  7  9  8
0.04499325212636809    10  7  10  7
0.0139592002344608    10  8  4  2
0.012776299084447    10  8  7  1
-0.01033894426436037    10  8  7  3
0.005764867432262072    10  8  8  4
-0.002929297386764704    10  8  9  7
0.00408535580440164    10  8  10  2
0.009505107532342141    10  8  10  8
-0.02488938846433408    10  9  4  1
-0.001397715929558572    10  9  4  3
-0.008936567003017599    10  9  7  2
-0.01004062143868752    10  9  8  7
-0.01249469278868913    10  9  9  4
-0.00469226879683621    10  9  10  1
-0.007384710259005441    10  9  10  3
0.01837708877374953    10  9  10  9
0.5097869163798407    10  10  1  1
0.4185099903628259    10  10  2  2
0.04186611674894247    10  10  3  1
0.4276833118358289    10  10  3  3
0.4732202371813155    10  10  4  4
0.4419371597619109    10  10  5  5
0.4045158072194895    10  10  6  6
0.4317022535894375    10  10  7  7
0.05483697057741944    10  10  8  2
0.3161251086482945    10  10  8  8
-0.02466814680952534    10  10  9  1
-0.06004677715599219    10  10  9  3
0.3683846883100724    10  10  9  9
0.07193990459457068    10  10  10  4
0.4211280952349792    10  10  10  10
0.03966208141344469    11  1  5  1
0.003600365189365087    11  1  5  3
0.01794261134277908    11  1  6  2
0.01423030972450587    11  1  8  6
-0.001540306642511784    11  1  9  5
0.02827255590166803    11  1  11  1
0.009650123620739113    11  2  5  2
0.009152014835238679    11  2  6  1
-0.003143109904564195    11  2  6  3
0.008383100121721299    11  2  8  5
0.003365210550796139    11  2  9  6
0.01230959783373701    11  2  11  2
0.01732629112302806    11  3  5  1
0.002293870336855757    11  3  5  3
0.00756728026818036    11  3  6  2
5.66313184650877e-05    11  3  8  6
0.002205348428510123    11  3  9  5
0.003639091789447932    11  3  11  1
0.01195408873817324    11  3  11  3
0.003868624677373201    11  4  5  4
0.002007735501801889    11  4  7  6
0.008192848869027946    11  4  10  5
0.008192848869027949    11  4  11  4
0.1599772952274834    11  5  1  1
0.09026479552146398    11  5  2  2
0.03682818619720948    11  5  3  1
0.1021906180728133    11  5  3  3
0.1061748640443533    11  5  4  4
0.1139121133990996    11  5  5  5
0.08757637809997527    11  5  6  6
0.08356090709637215    11  5  7  7
0.03241125174022738    11  5  8  2
0.03972493539256162    11  5  8  8
-0.03217619509155192    11  5  9  1
-0.03982275720153841    11  5  9  3
0.05228989193885626    11  5  9  9
0.05999694003650615    11  5  10  4
0.0732870483390277    11  5  10  10
0.07638263777456207    11  5  11  5
0.02266719808874568    11  6  2  1
-0.02440973432649917    11  6  3  2
0.03495934208018823    11  6  6  5
0.0301071780769664    11  6  7  4
0.02276759711987852    11  6  8  1
-0.00882304952888255    11  6  8  3
0.01124262226233146    11  6  9  2
-0.01213914172244875    11  6  9  8
0.03194369877860587    11  6  10  7
0.0449932521263679    11  6  11  6
0.002426082001610992    11  7  6  4
0.002426082001611009    11  7  7  5
0.006524776673881042    11  7  10  6
0.00652477667388105    11  7  11  7
0.01395920023446084    11  8  5  2
0.01277629908444702    11  8  6  1
-0.01033894426436036    11  8  6  3
0.005764867432262098    11  8  8  5
-0.00292929738676472    11  8  9  6
0.00408535580440165    11  8  11  2
0.009505107532342225    11  8  11  8
-0.02488938846433405    11  9  5  1
-0.00139771592955858    11  9  5  3
-0.008936567003017575    11  9  6  2
-0.01004062143868752    11  9  8  6
-0.01249469278868913    11  9  9  5
-0.004692268796836222    11  9  11  1
-0.007384710259005443    11  9  11  3
0.01837708877374951    11  9  11  9
0.01564153870970222    11  10  5  4
0.01359322318497369    11  10  7  6
-0.0006735718722285975    11  10  10  5
-0.0006735718722285711    11  10  11  4
0.01641071369871868    11  10  11  10
0.5097869163798413    11  11  1  1
0.4185099903628261    11  11  2  2
0.04186611674894253    11  11  3  1
0.4276833118358292    11  11  3  3
0.4419371597619113    11  11  4  4
0.4732202371813156    11  11  5  5
0.431702253589437    11  11  6  6
0.4045158072194903    11  11  7  7
0.05483697057741949    11  11  8  2
0.3161251086482946    11  11  8  8
-0.02466814680952539    11  11  9  1
-0.06004677715599225    11  11  9  3
0.3683846883100726    11  11  9  9
0.07328704833902788    11  11  10  4
0.3883066678375418    11  11  10  10
0.07193990459457071    11  11  11  5
0.4211280952349795    11  11  11  11
0.08224975644165254    12  1  1  1
0.05111793403044108    12  1  2  2
0.02034346730319605    12  1  3  1
0.06046077301365294    12  1  3  3
0.05114415437587153    12  1  4  4
0.05114415437587147    12  1  5  5
0.04300330134171677    12  1  6  6
0.04300330134171692    12  1  7  7
0.01559441997171704    12  1  8  2
0.0204587084841566    12  1  8  8
-0.02328846265236138    12  1  9  1
-0.02204625185247436    12  1  9  3
0.02522463522792859    12  1  9  9
0.03669359947485119    12  1  10  4
0.03497090596057578    12  1  10  10
0.03669359947485118    12  1  11  5
0.03497090596057581    12  1  11  11
0.02362902429604829    12  1  12  1
0.03973594286737496    12  2  2  1
-0.08413397123486788    12  2  3  2
0.05531006455317353    12  2  6  5
0.05531006455317374    12  2  7  4
0.02419598930278201    12  2  8  1
-0.007993729793647987    12  2  8  3
0.0121840250229466    12  2  9  2
0.006522988645160032    12  2  9  8
0.03625562198847166    12  2  10  7
0.03625562198847151    12  2  11  6
0.06304933747266171    12  2  12  2
-0.05247287852076919    12  3  1  1
-0.09432818086286306    12  3  2  2
0.010954700946988    12  3  3  1
-0.09431491332541682    12  3  3  3
-0.05849566049519715    12  3  4  4
-0.05849566049519703    12  3  5  5
-0.06003122829235307    12  3  6  6
-0.06003122829235333    12  3  7  7
-0.02139426356704182    12  3  8  2
-0.02042743956620303    12  3  8  8
0.002320945909485959    12  3  9  1
0.01933944655610725    12  3  9  3
-0.02569886157226885    12  3  9  9
-0.03293076519344695    12  3  10  4
-0.04056799597633691    12  3  10  10
-0.03293076519344693    12  3  11  5
-0.04056799597633702    12  3  11  11
-0.02060400538927851    12  3  12  1
0.05559423572600718    12  3  12  3
-0.005673893733614142    12  4  4  1
0.0001941795849755191    12  4  4  3
-0.001212555396525736    12  4  7  2
0.002806166569481178    12  4  8  7
-0.01127244783152168    12  4  9  4
0.01144137435842219    12  4  10  1
-0.01033572500485824    12  4  10  3
0.01042479135405167    12  4  10  9
0.02121236149055671    12  4  12  4
-0.005673893733614216    12  5  5  1
0.0001941795849755418    12  5  5  3
-0.001212555396525842    12  5  6  2
0.002806166569481162    12  5  8  6
-0.01127244783152172    12  5  9  5
0.01144137435842216    12  5  11  1
-0.01033572500485825    12  5  11  3
0.01042479135405167    12  5  11  9
0.02121236149055673    12  5  12  5
0.006866010554625623    12  6  5  2
0.005279052984416235    12  6  6  1
-0.002591296032140677    12  6  6  3
0.006040090148111938    12  6  8  5
0.002723186681940066    12  6  9  6
0.01376661207348487    12  6  11  2
0.002771080632410837    12  6  11  8
0.0178087492535338    12  6  12  6
0.00686601055462571    12  7  4  2
0.005279052984416351    12  7  7  1
-0.002591296032140802    12  7  7  3
0.006040090148111985    12  7  8  4
0.002723186681940062    12  7  9  7
0.01376661207348487    12  7  10  2
0.002771080632410847    12  7  10  8
0.01780874925353381    12  7  12  7
0.03233665358669022    12  8  2  1
-0.07067899939301506    12  8  3  2
0.04800522726636265    12  8  6  5
0.04800522726636247    12  8  7  4
0.01286872071661846    12  8  8  1
1.085255144880695e-15    12  8  8  2
0.02166467804689032    12  8  8  3
6.291254860275965e-15    12  8  8  8
-0.01271422460047439    12  8  9  2
0.05220353752358205    12  8  9  8
0.006745458487853987    12  8  10  7
0.00674545848785401    12  8  11  6
0.01993446463172631    12  8  12  2
0.04023246326002369    12  8  12  8
-0.06086534490917637    12  9  1  1
0.003309446922822566    12  9  2  2
-0.02167502227443806    12  9  3  1
0.001589118943823236    12  9  3  3
-0.04121339181406038    12  9  4  4
-0.0412133918140604    12  9  5  5
-0.01703168930699621    12  9  6  6
-0.01703168930699622    12  9  7  7
-0.0191052400130093    12  9  8  2
0.01726116920197663    12  9  8  8
-0.00194120621505719    12  9  9  1
0.02128717656591902    12  9  9  3
-0.0167190547703864    12  9  9  9
-0.001297506116336191    12  9  10  4
-0.03101913161227333    12  9  10  10
-0.001297506116336246    12  9  11  5
-0.03101913161227333    12  9  11  11
0.003213663563174996    12  9  12  1
-0.00942154362729771    12  9  12  3
0.03457997749667361    12  9  12  9
0.05226235439820134    12  10  4  1
-0.02103869449192178    12  10  4  3
0.05014209747514811    12  10  7  2
0.0146711440461248    12  10  8  7
0.02172870005332569    12  10  9  4
0.008905773840088773    12  10  10  1
0.01177393602714081    12  10  10  3
-0.01723642856393653    12  10  10  9
-0.01290980665114927    12  10  12  4
0.04977760678638985    12  10  12  10
0.05226235439820134    12  11  5  1
-0.02103869449192178    12  11  5  3
0.0501420974751481    12  11  6  2
0.01467114404612472    12  11  8  6
0.02172870005332571    12  11  9  5
0.008905773840088803    12  11  11  1
0.0117739360271408    12  11  11  3
-0.01723642856393651    12  11  11  9
-0.01290980665114932    12  11  12  5
0.04977760678638985    12  11  12  11
0.4702571350482929    12  12  1  1
0.4525404669937114    12  12  2  2
0.014894672547038    12  12  3  1
0.4586534578190995    12  12  3  3
0.4430853076230722    12  12  4  4
0.4430853076230722    12  12  5  5
0.4215378578271597    12  12  6  6
0.4215378578271601    12  12  7  7
0.04479018070290558    12  12  8  2
0.3336009618429484    12  12  8  8
-0.01512677590413879    12  12  9  1
-0.04582119334397148    12  12  9  3
0.3702656358980832    12  12  9  9
0.0637675730679052    12  12  10  4
0.3908251697025734    12  12  10  10
0.06376757306790516    12  12  11  5
0.3908251697025732    12  12  11  11
0.03346257838093303    12  12  12  1
-0.06338996204738426    12  12  12  3
2.35312440395295e-15    12  12  12  8
-0.01085693377809932    12  12  12  9
0.4085800578268328    12  12  12  12
-0.01936853416976863    13  1  5  2
-0.02086001839846222    13  1  6  1
0.007928416615631748    13  1  6  3
-0.01432490368147851    13  1  8  5
-0.001705802105019264    13  1  9  6
-0.01198802984068832    13  1  11  2
-0.009525794798693657    13  1  11  8
-0.01090580894055689    13  1  12  6
0.01931855669193127    13  1  13  1
-0.02402924446089521    13  2  5  1
0.008443525100386148    13  2  5  3
-0.02143419095293009    13  2  6  2
-0.01499362404570055    13  2  8  6
-0.004499934687681503    13  2  9  5
-0.01676515786700464    13  2  11  1
0.007317527924746073    13  2  11  3
0.001172531365293892    13  2  11  9
-0.01470689072816866    13  2  12  5
-0.008221534737042383    13  2  12  11
0.02255401104383771    13  2  13  2
0.008150208204439534    13  3  5  2
0.003261914802424699    13  3  6  1
-0.007593320553338539    13  3  6  3
0.004518682564581664    13  3  8  5
0.005370312452240986    13  3  9  6
0.009635896318869274    13  3  11  2
9.273406194808427e-05    13  3  11  8
0.01271725655330229    13  3  12  6
-0.004705247702790199    13  3  13  1
0.01299208740994384    13  3  13  3
-0.006151756157087627    13  4  6  4
-0.006151756157087646    13  4  7  5
-0.006480984386372894    13  4  10  6
-0.006480984386372915    13  4  11  7
0.007546233586684481    13  4  13  4
-0.04468989726448186    13  5  2  1
0.06325602490953823    13  5  3  2
-0.07278748228193924    13  5  6  5
-0.06048396996776416    13  5  7  4
-0.03505919646628981    13  5  8  1
0.004254082754421604    13  5  8  3
-0.01080419613615759    13  5  9  2
-0.006265604739932161    13  5  9  8
-0.03749556863358854    13  5  10  7
-0.05045753740633423    13  5  11  6
-0.04924211319577192    13  5  12  2
-0.02134701973090199    13  5  12  8
0.06690052050985849    13  5  13  5
-0.1643636963233162    13  6  1  1
-0.1115646805357932    13  6  2  2
-0.0275632988629924    13  6  3  1
-0.118088282179917    13  6  3  3
-0.1211456876957149    13  6  4  4
-0.1326794679338058    13  6  5  5
-0.1058845454508759    13  6  6  6
-0.09864901479315481    13  6  7  7
-0.04040538595548019    13  6  8  2
-0.04093541492286855    13  6  8  8
0.02382000904681482    13  6  9  1
0.04399822053251314    13  6  9  3
-0.0602827979019067    13  6  9  9
-0.06177030678437227    13  6  10  4
-0.08545847192976713    13  6  10  10
-0.07680297951491434    13  6  11  5
-0.08727210893276133    13  6  11  11
-0.03646011175727022    13  6  12  1
0.04452232775945514    13  6  12  3
0.006601690419208191    13  6  12  9
-0.08088105717375582    13  6  12  12
0.0876169845112621    13  6  13  6
-0.005766890119045498    13  7  5  4
-0.003617765328860946    13  7  7  6
-0.007516336365271028    13  7  10  5
-0.007516336365271035    13  7  11  4
-0.0009068185014970541    13  7  11  10
0.009001141046170377    13  7  13  7
-0.02958463990684836    13  8  5  1
0.01067473305897125    13  8  5  3
-0.02930634628031815    13  8  6  2
-0.005451796607614232    13  8  8  6
-0.003744777838104454    13  8  9  5
-0.012189531854035    13  8  11  1
-0.005599694711690202    13  8  11  3
0.0004054967709722473    13  8  11  9
-0.001086454559532534    13  8  12  5
-0.0216239608879869    13  8  12  11
0.007807285784130737    13  8  13  2
0.01915628344396348    13  8  13  8
-0.006779446239873043    13  9  5  2
-0.002362299233886593    13  9  6  1
0.01034694139222053    13  9  6  3
0.001420435539977859    13  9  8  5
0.002624736442079316    13  9  9  6
0.001071726671961602    13  9  11  2
-0.004957371749298388    13  9  11  8
0.001446664809381633    13  9  12  6
-0.00115690834211991    13  9  13  1
-0.0006527640224073149    13  9  13  3
0.00799673538586906    13  9  13  9
-0.009913682377331982    13  10  6  4
-0.009913682377331992    13  10  7  5
-0.001093041133896813    13  10  10  6
-0.001093041133896857    13  10  11  7
0.004010356274022984    13  10  13  4
0.01012768966570379    13  10  13  10
-0.06669442702708965    13  11  2  1
0.1127307346032156    13  11  3  2
-0.1148149203901311    13  11  6  5
-0.09498755563546739    13  11  7  4
-0.0411842810403054    13  11  8  1
-0.01315666915007428    13  11  8  3
-0.0005012961390252585    13  11  9  2
-0.05033056807340753    13  11  9  8
-0.02598537290185227    13  11  10  7
-0.0281714551696458    13  11  11  6
-0.04572265810606312    13  11  12  2
-0.04687491599290199    13  11  12  8
0.06064645277256713    13  11  13  5
0.1096744563308478    13  11  13  11
-0.03137542874193192    13  12  5  2
-0.02408032921472392    13  12  6  1
0.02843431065320992    13  12  6  3
-0.01176308889637363    13  12  8  5
-0.0009360093607230248    13  12  9  6
-0.003980069906270629    13  12  11  2
-0.01269181387044292    13  12  11  8
-0.0005351035197410262    13  12  12  6
0.01164968031290273    13  12  13  1
-0.00298523414732212    13  12  13  3
0.008538963558903254    13  12  13  9
0.03105627347587446    13  12  13  12
0.5022412046089121    13  13  1  1
0.4418541959083353    13  13  2  2
0.03207495162743271    13  13  3  1
0.4490685757975016    13  13  3  3
0.443685241507413    13  13  4  4
0.4714923749073245    13  13  5  5
0.4441105560773442    13  13  6  6
0.4153791938123373    13  13  7  7
0.05334997648133132    13  13  8  2
0.3297815878742711    13  13  8  8
-0.0291187537484936    13  13  9  1
-0.05635579404304438    13  13  9  3
-1.971248168559824e-15    13  13  9  8
0.3657406765293912    13  13  9  9
0.08296884075434453    13  13  10  4
0.3884280286696187    13  13  10  10
0.08748471075667354    13  13  11  5
0.4156881807004979    13  13  11  11
0.04373505710466672    13  13  12  1
-0.05464026890940788    13  13  12  3
-0.01184538603417157    13  13  12  9
0.3988547843995203    13  13  12  12
-0.09987523418381046    13  13  13  6
0.4306545051373931    13  13  13  13
-0.01936853416976854    14  1  4  2
-0.02086001839846218    14  1  7  1
0.007928416615631694    14  1  7  3
-0.01432490368147846    14  1  8  4
-0.001705802105019246    14  1  9  7
-0.01198802984068828    14  1  10  2
-0.009525794798693603    14  1  10  8
-0.01090580894055691    14  1  12  7
0.01931855669193113    14  1  14  1
-0.024029244460895    14  2  4  1
0.008443525100386052    14  2  4  3
-0.02143419095292994    14  2  7  2
-0.01499362404570052    14  2  8  7
-0.004499934687681437    14  2  9  4
-0.01676515786700456    14  2  10  1
0.007317527924746097    14  2  10  3
0.001172531365293863    14  2  10  9
-0.01470689072816868    14  2  12  4
-0.008221534737042223    14  2  12  10
0.02255401104383759    14  2  14  2
0.008150208204439442    14  3  4  2
0.003261914802424644    14  3  7  1
-0.007593320553338479    14  3  7  3
0.004518682564581634    14  3  8  4
0.005370312452240982    14  3  9  7
0.009635896318869267    14  3  10  2
9.273406194802303e-05    14  3  10  8
0.0127172565533023    14  3  12  7
-0.004705247702790165    14  3  14  1
0.01299208740994381    14  3  14  3
-0.04468989726448169    14  4  2  1
0.06325602490953794    14  4  3  2
-0.06048396996776371    14  4  6  5
-0.07278748228193921    14  4  7  4
-0.03505919646628971    14  4  8  1
0.004254082754421624    14  4  8  3
-0.01080419613615758    14  4  9  2
-0.006265604739932041    14  4  9  8
-0.05045753740633436    14  4  10  7
-0.03749556863358838    14  4  11  6
-0.04924211319577181    14  4  12  2
-0.02134701973090189    14  4  12  8
0.05180805333648947    14  4  13  5
0.05262574022452107    14  4  13  11
0.06690052050985822    14  4  14  4
-0.006151756157087573    14  5  6  4
-0.006151756157087592    14  5  7  5
-0.006480984386372885    14  5  10  6
-0.006480984386372906    14  5  11  7
0.007546233586684458    14  5  13  4
0.004010356274022943    14  5  13  10
0.007546233586684433    14  5  14  5
-0.005766890119045391    14  6  5  4
-0.003617765328860844    14  6  7  6
-0.007516336365271015    14  6  10  5
-0.007516336365271021    14  6  11  4
-0.0009068185014969661    14  6  11  10
0.009001141046170358    14  6  13  7
0.009001141046170339    14  6  14  6
-0.1643636963233161    14  7  1  1
-0.1115646805357931    14  7  2  2
-0.02756329886299244    14  7  3  1
-0.1180882821799169    14  7  3  3
-0.1326794679338058    14  7  4  4
-0.1211456876957148    14  7  5  5
-0.09864901479315424    14  7  6  6
-0.1058845454508765    14  7  7  7
-0.04040538595548017    14  7  8  2
-0.04093541492286851    14  7  8  8
0.02382000904681486    14  7  9  1
0.04399822053251316    14  7  9  3
-0.06028279790190664    14  7  9  9
-0.07680297951491437    14  7  10  4
-0.08727210893276136    14  7  10  10
-0.06177030678437233    14  7  11  5
-0.08545847192976738    14  7  11  11
-0.03646011175727024    14  7  12  1
0.04452232775945515    14  7  12  3
0.006601690419208172    14  7  12  9
-0.08088105717375577    14  7  12  12
0.06961470241892127    14  7  13  6
-0.09458302028419795    14  7  13  13
0.08761698451126218    14  7  14  7
-0.02958463990684818    14  8  4  1
0.01067473305897116    14  8  4  3
-0.02930634628031815    14  8  7  2
-0.005451796607614182    14  8  8  7
-0.003744777838104378    14  8  9  4
-0.01218953185403492    14  8  10  1
-0.005599694711690173    14  8  10  3
0.0004054967709722218    14  8  10  9
-0.001086454559532537    14  8  12  4
-0.02162396088798699    14  8  12  10
0.007807285784130604    14  8  14  2
0.01915628344396378    14  8  14  8
-0.006779446239873054    14  9  4  2
-0.002362299233886572    14  9  7  1
0.01034694139222052    14  9  7  3
0.001420435539977867    14  9  8  4
0.002624736442079312    14  9  9  7
0.001071726671961615    14  9  10  2
-0.004957371749298371    14  9  10  8
0.001446664809381615    14  9  12  7
-0.001156908342119914    14  9  14  1
-0.0006527640224072756    14  9  14  3
0.007996735385869062    14  9  14  9
-0.06669442702708957    14  10  2  1
0.1127307346032155    14  10  3  2
-0.09498755563546703    14  10  6  5
-0.1148149203901313    14  10  7  4
-0.04118428104030531    14  10  8  1
-0.01315666915007432    14  10  8  3
-0.0005012961390252175    14  10  9  2
-0.05033056807340758    14  10  9  8
-0.02817145516964593    14  10  10  7
-0.02598537290185194    14  10  11  6
-0.04572265810606296    14  10  12  2
-0.04687491599290196    14  10  12  8
0.0526257402245211    14  10  13  5
0.08941907699944036    14  10  13  11
0.06064645277256667    14  10  14  4
0.1096744563308475    14  10  14  10
-0.00991368237733198    14  11  6  4
-0.00991368237733199    14  11  7  5
-0.001093041133896796    14  11  10  6
-0.00109304113389684    14  11  11  7
0.004010356274022969    14  11  13  4
0.0101276896657038    14  11  13  10
0.004010356274022929    14  11  14  5
0.01012768966570379    14  11  14  11
-0.03137542874193192    14  12  4  2
-0.02408032921472394    14  12  7  1
0.02843431065320992    14  12  7  3
-0.01176308889637365    14  12  8  4
-0.0009360093607230435    14  12  9  7
-0.003980069906270557    14  12  10  2
-0.0126918138704429    14  12  10  8
-0.0005351035197410681    14  12  12  7
0.01164968031290263    14  12  14  1
-0.002985234147322001    14  12  14  3
0.008538963558903264    14  12  14  9
0.03105627347587453    14  12  14  12
0.01390356669995592    14  13  5  4
0.01436568113250371    14  13  7  6
0.002257935001164474    14  13  10  5
0.0022579350011645    14  13  11  4
0.0136300760154396    14  13  11  10
-0.00264610694980633    14  13  13  7
-0.002646106949806237    14  13  14  6
0.01496614721378096    14  13  14  13
0.5022412046089112    14  14  1  1
0.4418541959083349    14  14  2  2
0.03207495162743252    14  14  3  1
0.4490685757975013    14  14  3  3
0.4714923749073242    14  14  4  4