 &FCI NORB=  18,NELEC=14,MS2=0,
  ORBSYM=1,1,1,1,1,1,1,1,1,1,1,1,1,1,1,1,1,1,
  ISYM=1,
 &END
 4.274115456405256    1    1    1    1
 -0.1490041427000884    1    1    2    1
 1.24383570691264    1    1    2    2
 0.1521869821871929    1    1    3    1
 0.006250385648467969    1    1    3    2
 0.46326244800344    1    1    3    3
 -2.073653813704403e-15    1    1    4    3
 1.310198026120332    1    1    4    4
 1.310198026120329    1    1    5    5
 -0.1408922629137479    1    1    6    1
 -0.0850211595533283    1    1    6    2
 0.05286650014001262    1    1    6    3
 1.231755589724593    1    1    6    6
 -1.212476765809881e-15    1    1    7    3
 -0.03788308725836016    1    1    7    4
 -2.712799549753084e-15    1    1    7    5
 0.4455609896080654    1    1    7    7
 -1.119032605713254e-15    1    1    8    3
 -1.975511976326025e-15    1    1    8    4
 -0.03788308725835815    1    1    8    5
 -2.10389057371869e-15    1    1    8    7
 0.4455609896080696    1    1    8    8
 0.1465612336815638    1    1    9    1
 0.05929408910378449    1    1    9    2
 0.02268963551622342    1    1    9    3
 0.02884463993005167    1    1    9    6
 0.4689185590885579    1    1    9    9
 -0.002639355878758278    1    1   10    1
 0.001118994756980877    1    1   10    2
 -0.002019059180356468    1    1   10    3
 -0.000917320232967783    1    1   10    6
 0.0007212063229073797    1    1   10    9
 0.399832161066602    1    1   10   10
 -0.006190547735632008    1    1   11    1
 -0.002169269757178018    1    1   11    2
 -0.00677908823010896    1    1   11    3
 -0.005359157876581285    1    1   11    6
 0.005961342377619925    1    1   11    9
 -0.003476341590737112    1    1   11   10
 0.3254164920313787    1    1   11   11
 -0.04095602976202541    1    1   12    1
 -0.02072808115795212    1    1   12    2
 -0.05409461252216315    1    1   12    3
 1.117294623093733e-15    1    1   12    4
 -0.03074119770719325    1    1   12    6
 -0.01698763622040795    1    1   12    9
 0.00646619075510619    1    1   12   10
 0.009792481632866669    1    1   12   11
 0.2544924802449083    1    1   12   12
 -0.004055886284324289    1    1   13    4
 -1.243586637998581e-15    1    1   13    5
 0.00328802278211914    1    1   13    7
 -1.297161975435036e-15    1    1   13    8
 0.3847159400650175    1    1   13   13
 -1.157171834263189e-15    1    1   14    4
 -0.00405588628432407    1    1   14    5
 0.00328802278212115    1    1   14    8
 0.3847159400650185    1    1   14   14
 0.008064663806988224    1    1   15    1
 -0.0269330328447881    1    1   15    2
 0.01259557783808013    1    1   15    3
 0.005233770086151437    1    1   15    6
 -0.008644821321544953    1    1   15    9
 0.002833208035296929    1    1   15   10
 -0.01268344892998701    1    1   15   11
 0.01990152755082777    1    1   15   12
 0.4844708189456439    1    1   15   15
 0.02907847105279599    1    1   16    4
 0.01496533692147617    1    1   16    7
 -1.119789259948068e-15    1    1   16    8
 0.01117194642331008    1    1   16   13
 0.2919599830282906    1    1   16   16
 -1.090617950840775e-15    1    1   17    4
 0.02907847105279868    1    1   17    5
 0.01496533692147781    1    1   17    8
 0.01117194642331056    1    1   17   14
 0.2919599830282909    1    1   17   17
 0.0592044331803226    1    1   18    1
 0.1049236599003849    1    1   18    2
 0.06012321520730229    1    1   18    3
 1.274832720077033e-15    1    1   18    4
 0.04810195825518546    1    1   18    6
 1.035949681003454e-15    1    1   18    7
 1.235082701184074e-15    1    1   18    8
 0.02827270508573923    1    1   18    9
 -0.002031772007160462    1    1   18   10
 -0.01168559230392568    1    1   18   11
 0.02211661227265762    1    1   18   12
 0.01852576468662485    1    1   18   15
 0.3568285985265043    1    1   18   18
 -0.1490041427000883    2    1    1    1
 0.04012713889405461    2    1    2    1
 0.03533343279498118    2    1    2    2
 -0.01052460987206093    2    1    3    1
 0.0006403460842876051    2    1    3    2
 -0.0004464264830448906    2    1    3    3
 0.00297336455477334    2    1    4    4
 0.002973364554773335    2    1    5    5
 -0.01131471090707021    2    1    6    1
 0.0001800619629710639    2    1    6    2
 -0.002059965926147214    2    1    6    3
 -0.02913055441396884    2    1    6    6
 -0.0004553569016072783    2    1    7    4
 -0.0008211706187425878    2    1    7    7
 -0.0004553569016072696    2    1    8    5
 -0.0008211706187425925    2    1    8    8
 0.0002092678056211473    2    1    9    1
 0.004211711681607757    2    1    9    2
 0.0005776695432692024    2    1    9    3
 -0.001207784847938748    2    1    9    6
 -0.002915932759510918    2    1    9    9
 0.000468648234999138    2    1   10    1
 -3.495697016719339e-06    2    1   10    2
 1.219390450573436e-05    2    1   10    3
 0.0001303734151491696    2    1   10    6
 -4.368101834751115e-06    2    1   10    9
 0.002833208035294732    2    1   10   10
 0.001550502698474517    2    1   11    1
 -0.0003935977145575913    2    1   11    2
 -2.613156891319325e-05    2    1   11    3
 0.0006154995204174573    2    1   11    6
 -6.937176180679149e-05    2    1   11    9
 -5.878254615750166e-05    2    1   11   10
 0.001961870387300409    2    1   11   11
 0.002286788713275574    2    1   12    1
 -0.0007476046616680403    2    1   12    2
 0.000506897906713131    2    1   12    3
 0.0009760714869236075    2    1   12    6
 -0.0002738105704441356    2    1   12    9
 6.698814789012948e-05    2    1   12   10
 6.684247002053455e-05    2    1   12   11
 0.001006360602330242    2    1   12   12
 0.0001782415211443514    2    1   13    4
 0.0001531655962230444    2    1   13    7
 0.002664058273008606    2    1   13   13
 0.0001782415211443522    2    1   14    5
 0.0001531655962230539    2    1   14    8
 0.002664058273008614    2    1   14   14
 -0.002926187925094931    2    1   15    1
 -0.0003066986447734598    2    1   15    2
 0.0006971135494428207    2    1   15    3
 -0.001152972496170434    2    1   15    6
 -0.0005713663403229662    2    1   15    9
 3.483883876404602e-05    2    1   15   10
 -0.0002796432874088584    2    1   15   11
 0.000168676796561253    2    1   15   12
 0.004285759437636101    2    1   15   15
 0.0007191846641557522    2    1   16    4
 0.00045850003678796    2    1   16    7
 0.0001426659526241471    2    1   16   13
 0.001324415251014982    2    1   16   16
 0.0007191846641557571    2    1   17    5
 0.000458500036787968    2    1   17    8
 0.0001426659526241509    2    1   17   14
 0.001324415251014986    2    1   17   17
 -0.001320037541975712    2    1   18    1
 0.00557524587252382    2    1   18    2
 0.0007759945754584833    2    1   18    3
 -0.002959975672253327    2    1   18    6
 -0.000698063543015157    2    1   18    9
 3.42557658828737e-07    2    1   18   10
 -3.852911721011171e-05    2    1   18   11
 4.501942358166085e-05    2    1   18   12
 6.58563108032479e-05    2    1   18   15
 0.001793694974405987    2    1   18   18
 1.24383570691264    2    2    1    1
 0.03533343279498122    2    2    2    1
 1.135468001384596    2    2    2    2
 0.02042769259041428    2    2    3    1
 0.03872087524086114    2    2    3    2
 0.4556204728116414    2    2    3    3
 -1.570612447310143e-15    2    2    4    3
 0.9264575268934042    2    2    4    4
 0.9264575268934019    2    2    5    5
 -0.02671739933666074    2    2    6    1
 -0.04284641031060981    2    2    6    2
 0.01739174326151964    2    2    6    3
 0.7464271920628431    2    2    6    6
 -1.209317158596209e-15    2    2    7    3
 0.0103384086841521    2    2    7    4
 -2.029539522501705e-15    2    2    7    5
 0.414655638157342    2    2    7    7
 -1.104012911969558e-15    2    2    8    3
 -1.522509024624651e-15    2    2    8    4
 0.01033840868415352    2    2    8    5
 -2.182514141043294e-15    2    2    8    7
 0.4146556381573464    2    2    8    8
 0.03840840064423388    2    2    9    1
 0.0515366649053035    2    2    9    2
 0.03239779446201476    2    2    9    3
 0.03002742743677769    2    2    9    6
 0.3960464050940925    2    2    9    9
 0.0004580079356939614    2    2   10    1
 -0.00237176932732098    2    2   10    2
 -0.00147991964385172    2    2   10    3
 0.001139790282898751    2    2   10    6
 -0.000173224518123906    2    2   10    9
 0.4844708189456395    2    2   10   10
 0.001805158027619421    2    2   11    1
 -0.01491052680889042    2    2   11    2
 -0.00746234856119584    2    2   11    3
 0.003134800365557463    2    2   11    6
 0.002156603958141872    2    2   11    9
 -0.005150201572958324    2    2   11   10
 0.3816382771679334    2    2   11   11
 -0.008197729263722312    2    2   12    1
 -0.02566380078950938    2    2   12    2
 -0.04287166053414232    2    2   12    3
 -0.01467553519809062    2    2   12    6
 -0.02068982270751489    2    2   12    9
 0.008788155260886896    2    2   12   10
 0.01267103537676943    2    2   12   11
 0.2810970799473564    2    2   12   12
 0.001333260082411544    2    2   13    4
 0.007406133707904816    2    2   13    7
 -1.486090631636137e-15    2    2   13    8
 0.4592806643880272    2    2   13   13
 0.00133326008241175    2    2   14    5
 -1.062593514987564e-15    2    2   14    7
 0.007406133707907078    2    2   14    8
 0.4592806643880284    2    2   14   14
 -0.005458655770444548    2    2   15    1
 0.003549959109672632    2    2   15    2
 0.03151289170842794    2    2   15    3
 -0.01071374292016902    2    2   15    6
 -0.01455156760219083    2    2   15    9
 0.00428575943763874    2    2   15   10
 -0.01873998939692847    2    2   15   11
 0.02328169525414199    2    2   15   12
 0.593485481757514    2    2   15   15
 -1.015841260719301e-15    2    2   16    3
 0.02603007040050585    2    2   16    4
 0.02632049502719929    2    2   16    7
 -1.225344298239874e-15    2    2   16    8
 0.01483488346387203    2    2   16   13
 0.3236139568412537    2    2   16   16
 -1.023397730247812e-15    2    2   17    3
 0.02603007040050776    2    2   17    5
 0.02632049502720123    2    2   17    8
 0.01483488346387266    2    2   17   14
 0.3236139568412539    2    2   17   17
 0.01423117616645402    2    2   18    1
 0.1158819530144858    2    2   18    2
 0.0813023415279782    2    2   18    3
 1.014991276339107e-15    2    2   18    4
 0.01278184709423522    2    2   18    6
 1.060933208778622e-15    2    2   18    7
 1.197258613808839e-15    2    2   18    8
 0.005212241213969225    2    2   18    9
 -0.001932456897393083    2    2   18   10
 -0.01251548211131262    2    2   18   11
 0.02403474011571166    2    2   18   12
 0.02657353017513467    2    2   18   15
 1.038030702263976e-15    2    2   18   16
 0.3904926515293816    2    2   18   18
 0.1521869821871934    3    1    1    1
 -0.01052460987206096    3    1    2    1
 0.02042769259041434    3    1    2    2
 0.007724856301453835    3    1    3    1
 -0.001059070842961631    3    1    3    2
 0.0008775265420514475    3    1    3    3
 0.03215312609505405    3    1    4    4
 0.03215312609505398    3    1    5    5
 0.0002701290756972144    3    1    6    1
 -0.004262582339549093    3    1    6    2
 0.002952023460890565    3    1    6    3
 0.03923757272770961    3    1    6    6
 -0.003012791562008843    3    1    7    4
 0.001513933877291122    3    1    7    7
 -0.003012791562008791    3    1    8    5
 0.001513933877291117    3    1    8    8
 0.004840747626483404    3    1    9    1
 0.001089253034982934    3    1    9    2
 -0.001706206250987645    3    1    9    3
 0.00081165555763419    3    1    9    6
 0.005778566238999531    3    1    9    9
 -0.0001825029901570928    3    1   10    1
 0.0001260672690391658    3    1   10    2
 -1.926544068604802e-05    3    1   10    3
 -0.0001261832278131644    3    1   10    6
 3.931522254217452e-05    3    1   10    9
 -0.002031772007149688    3    1   10   10
 -0.0005251931285909698    3    1   11    1
 0.0003685150544533226    3    1   11    2
 -3.837958081935509e-05    3    1   11    3
 -0.0005442252557622896    3    1   11    6
 0.0001713630036075836    3    1   11    9
 -2.097698404498226e-06    3    1   11   10
 -0.001707267118505363    3    1   11   11
 -0.002022754855904542    3    1   12    1
 4.528093718169588e-06    3    1   12    2
 -0.0005531549949703269    3    1   12    3
 -0.001337504462424252    3    1   12    6
 0.000500866465088618    3    1   12    9
 -1.277372920102249e-05    3    1   12   10
 -6.074415327047621e-05    3    1   12   11
 -0.000921306980702524    3    1   12   12
 -0.0002682981592269299    3    1   13    4
 -1.441753705367442e-05    3    1   13    7
 -0.002079252041067171    3    1   13   13
 -0.0002682981592269274    3    1   14    5
 -1.441753705368163e-05    3    1   14    8
 -0.002079252041067177    3    1   14   14
 0.0006711015369488959    3    1   15    1
 -0.00143500930368703    3    1   15    2
 -0.0001688008071979898    3    1   15    3
 0.0008342399896480586    3    1   15    6
 0.0004148654240497117    3    1   15    9
 3.425576589096619e-07    3    1   15   10
 -0.0001185242190471712    3    1   15   11
 -2.150277980407796e-05    3    1   15   12
 -0.001932456897380107    3    1   15   15
 0.0005723794276095797    3    1   16    4
 -0.0008580937741571206    3    1   16    7
 -9.938961389600381e-05    3    1   16   13
 -0.001552315210715285    3    1   16   16
 0.000572379427609643    3    1   17    5
 -0.0008580937741571353    3    1   17    8
 -9.93896138960082e-05    3    1   17   14
 -0.001552315210715285    3    1   17   17
 0.002523685615809886    3    1   18    1
 0.001540602022935455    3    1   18    2
 -0.00129498198829758    3    1   18    3
 0.002796121233523434    3    1   18    6
 0.00188152198550058    3    1   18    9
 2.675174299126702e-05    3    1   18   10
 6.490693253509963e-05    3    1   18   11
 -0.0001997214473216921    3    1   18   12
 0.0001222813709448931    3    1   18   15
 -0.0008818909075090173    3    1   18   18
 0.006250385648469004    3    2    1    1
 0.0006403460842876465    3    2    2    1
 0.03872087524086147    3    2    2    2
 -0.001059070842961886    3    2    3    1
 0.007882992463401444    3    2    3    2
 0.0110114848786294    3    2    3    3
 0.03307047561670343    3    2    4    4
 0.03307047561670335    3    2    5    5
 -6.784529384192693e-05    3    2    6    1
 0.001588297658964591    3    2    6    2
 0.001100001933282601    3    2    6    3
 0.02164211445052243    3    2    6    6
 0.004377110846956374    3    2    7    4
 0.004650806927949734    3    2    7    7
 0.004377110846956457    3    2    8    5
 0.004650806927949805    3    2    8    8
 -0.0002140944726029806    3    2    9    1
 0.002300962897553287    3    2    9    2
 0.0007814695332321739    3    2    9    3
 0.003933908549940197    3    2    9    6
 0.007246817224723732    3    2    9    9
 5.711896298385473e-05    3    2   10    1
 -0.00040530669816971    3    2   10    2
 -6.612764644396918e-05    3    2   10    3
 0.0001350960671474604    3    2   10    6
 -0.0001034652473674912    3    2   10    9
 0.01852576468663832    3    2   10   10
 0.0001777695452726171    3    2   11    1
 -0.001437884591393278    3    2   11    2
 -0.0004125550644033905    3    2   11    3
 0.0004257645380108333    3    2   11    6
 -0.0002644220345033547    3    2   11    9
 -0.0002635917434143763    3    2   11   10
 0.01415548671240277    3    2   11   11
 0.0002089939032752533    3    2   12    1
 -0.001878314864029685    3    2   12    2
 1.19546280829333e-05    3    2   12    3
 -0.0007484507804552228    3    2   12    6
 -6.387716647490871e-06    3    2   12    9
 0.0005009183196695898    3    2   12   10
 0.001006103598778124    3    2   12   11
 0.008573646137068033    3    2   12   12
 0.0001699996725857704    3    2   13    4
 0.001100234062982351    3    2   13    7
 0.01601455820480939    3    2   13   13
 0.0001699996725857856    3    2   14    5
 0.001100234062982421    3    2   14    8
 0.01601455820480943    3    2   14   14
 -0.0003582216287468037    3    2   15    1
 0.001094763929060833    3    2   15    2
 0.00377340876665333    3    2   15    3
 -0.001583104020344587    3    2   15    6
 -0.0008327626703372742    3    2   15    9
 6.585631080338261e-05    3    2   15   10
 -0.00267396905688178    3    2   15   11
 0.00111418863585334    3    2   15   12
 0.02657353017515629    3    2   15   15
 0.002061246807704474    3    2   16    4
 0.0003045929066841553    3    2   16    7
 0.001120639911006731    3    2   16   13
 0.005324838805579791    3    2   16   16
 0.002061246807704544    3    2   17    5
 0.0003045929066841995    3    2   17    8
 0.001120639911006742    3    2   17   14
 0.005324838805579801    3    2   17   17
 -0.0004387624970135865    3    2   18    1
 0.007292472395585617    3    2   18    2
 0.003354969509819502    3    2   18    3
 0.0006722524805359756    3    2   18    6
 0.0002881168288947636    3    2   18    9
 0.0001222813709443381    3    2   18   10
 7.12763835734389e-07    3    2   18   11
 -0.002001447505035193    3    2   18   12
 0.002924450346713577    3    2   18   15
 0.009428411553867026    3    2   18   18
 0.4632624480034428    3    3    1    1
 -0.0004464264830450787    3    3    2    1
 0.4556204728116378    3    3    2    2
 0.0008775265420512609    3    3    3    1
 0.01101148487863859    3    3    3    2
 0.3772926891393429    3    3    3    3
 0.4485839304756546    3    3    4    4
 0.4485839304756535    3    3    5    5
 -0.0007724163453693143    3    3    6    1
 -0.001380683295699574    3    3    6    2
 0.0003768567503130092    3    3    6    3
 0.4273794550370871    3    3    6    6
 -1.493303946090351e-15    3    3    7    3
 0.01493657472509013    3    3    7    4
 -1.020594121505233e-15    3    3    7    5
 0.3596316248115835    3    3    7    7
 -1.298494177887906e-15    3    3    8    3
 0.01493657472509071    3    3    8    5
 -1.868632811448399e-15    3    3    8    7
 0.359631624811587    3    3    8    8
 0.002710286718213583    3    3    9    1
 0.005162135236190981    3    3    9    2
 0.01105013266984937    3    3    9    3
 0.01401259678522051    3    3    9    6
 0.3573223376834782    3    3    9    9
 0.0001038320118696892    3    3   10    1
 -0.0006411829775826186    3    3   10    2
 -0.000791604020019893    3    3   10    3
 0.0005120906996176899    3    3   10    6
 2.842025082563267e-05    3    3   10    9
 0.3568285985265558    3    3   10   10
 0.0002924993475545667    3    3   11    1
 -0.003373828734589167    3    3   11    2
 -0.001948494784235982    3    3   11    3
 0.001420842803572355    3    3   11    6
 0.001956765781217463    3    3   11    9
 -0.001765383477367763    3    3   11   10
 0.3137611685683647    3    3   11   11
 -0.001014447239883561    3    3   12    1
 -0.008806817420469949    3    3   12    2
 -0.02853416625079486    3    3   12    3
 -0.004172886208733726    3    3   12    6
 -0.009172371171551303    3    3   12    9
 0.003772425696779253    3    3   12   10
 0.008608446359914283    3    3   12   11
 0.260843624782677    3    3   12   12
 4.630146174617862e-05    3    3   13    4
 0.0008743835518197939    3    3   13    7
 -1.161991949632397e-15    3    3   13    8
 0.34654232627099    3    3   13   13
 4.630146174627959e-05    3    3   14    5
 0.0008743835518215209    3    3   14    8
 0.3465423262709908    3    3   14   14
 -0.0002950493635286084    3    3   15    1
 0.0005585490290244459    3    3   15    2
 0.002737970144546686    3    3   15    3
 -0.001369307131984684    3    3   15    6
 -0.004811337231122147    3    3   15    9
 0.001793694974408994    3    3   15   10
 -0.004540789586953244    3    3   15   11
 0.01192599851823944    3    3   15   12
 0.3904926515294346    3    3   15   15
 -1.004223043640197e-15    3    3   16    3
 0.006344176355652952    3    3   16    4
 0.01599415609973756    3    3   16    7
 -1.005860920967729e-15    3    3   16    8
 0.008182876692154173    3    3   16   13
 0.2830278877291338    3    3   16   16
 -1.007269922310107e-15    3    3   17    3
 0.006344176355653949    3    3   17    5
 0.01599415609973912    3    3   17    8
 0.00818287669215469    3    3   17   14
 0.2830278877291341    3    3   17   17
 0.0009944469908369491    3    3   18    1
 0.02174784446677207    3    3   18    2
 0.03625580302992647    3    3   18    3
 0.003046861296229833    3    3   18    6
 0.009897809391191262    3    3   18    9
 -0.0008818909075188287    3    3   18   10
 -0.006608053300506475    3    3   18   11
 0.01544796183335033    3    3   18   12
 0.009428411553868997    3    3   18   15
 0.3200609204001909    3    3   18   18
 0.04870937568013142    4    1    4    1
 0.03022714753902844    4    1    4    2
 0.005439998968772333    4    1    4    3
 0.03015830135859599    4    1    6    4
 -0.01067586328624383    4    1    7    1
 -0.00272623782559646    4    1    7    2
 0.001774861687079168    4    1    7    3
 -0.002224862887949132    4    1    7    6
 0.004954062889247758    4    1    9    4
 0.001925960758633908    4    1    9    7
 7.354260287348024e-05    4    1   10    4
 -2.96815481289958e-05    4    1   10    7
 0.0001658409490690645    4    1   11    4
 -2.8237985288831e-05    4    1   11    7
 -0.002676346368369948    4    1   12    4
 -0.0002937767830827759    4    1   12    7
 -0.000282234775989599    4    1   13    1
 -2.081718801852952e-05    4    1   13    2
 3.392750022453848e-05    4    1   13    3
 -0.0003409772092561883    4    1   13    6
 -0.0001707919979237166    4    1   13    9
 3.728417861247365e-05    4    1   13   10
 0.0002966298539968094    4    1   13   11
 0.0001605184740816759    4    1   13   12
 -0.002233795510632802    4    1   15    4
 -3.553605555423109e-05    4    1   15    7
 0.0008139742642269112    4    1   15   13
 0.001112556978113857    4    1   16    1
 0.001267620021057605    4    1   16    2
 0.0007624947767404503    4    1   16    3
 9.599160923003091e-05    4    1   16    6
 -0.0003146869376164221    4    1   16    9
 -8.476250795077442e-05    4    1   16   10
 -0.0001837806821881904    4    1   16   11
 0.000328909047566421    4    1   16   12
 -0.000257855514615917    4    1   16   15
 0.00581133347031468    4    1   18    4
 0.000135935850533317    4    1   18    7
 0.0002619398096925411    4    1   18   13
 0.001137386453444124    4    1   18   16
 0.03022714753902844    4    2    4    1
 0.1241578699106505    4    2    4    2
 0.02593714913462819    4    2    4    3
 0.06654566193499305    4    2    6    4
 -0.01061928821412478    4    2    7    1
 -0.004610655926174455    4    2    7    2
 0.03473576686867311    4    2    7    3
 -0.002581224932623529    4    2    7    6
 0.0195659262247316    4    2    9    4
 0.02566599295694084    4    2    9    7
 0.0001154050666200646    4    2   10    4
 -0.0005218023486942305    4    2   10    7
 -1.136577797962483e-05    4    2   11    4
 -0.0009468408029290911    4    2   11    7
 -0.01036749708236663    4    2   12    4
 -0.00796578054414771    4    2   12    7
 -0.0002952119744120577    4    2   13    1
 0.001218805788837925    4    2   13    2
 0.002211012804232772    4    2   13    3
 -0.00151049786900225    4    2   13    6
 -0.002578193611009151    4    2   13    9
 0.0008139742642269377    4    2   13   10
 0.005934668200136001    4    2   13   11
 0.002748063843723269    4    2   13   12
 -0.008573095644956631    4    2   15    4
 -0.003342514307981593    4    2   15    7
 0.01611168798509454    4    2   15   13
 7.773944694431749e-05    4    2   16    1
 0.006002887237495485    4    2   16    2
 0.01217220671005582    4    2   16    3
 -0.001262255762670809    4    2   16    6
 -0.004679158484976039    4    2   16    9
 -0.001676787136924819    4    2   16   10
 -0.003266090001193669    4    2   16   11
 0.006831873101132782    4    2   16   12
 -0.002816885132747434    4    2   16   15
 0.0208376697344702    4    2   18    4
 0.01098419083551957    4    2   18    7
 0.005803609367600326    4    2   18   13
 0.01867099758455477    4    2   18   16
 -2.073653813704403e-15    4    3    1    1
 -1.570612447310143e-15    4    3    2    2
 0.005439998968772349    4    3    4    1
 0.02593714913462831    4    3    4    2
 0.01123348972174342    4    3    4    3
 -1.780180754379192e-15    4    3    4    4
 -1.580494376750087e-15    4    3    5    5
 0.02390933353082054    4    3    6    4
 -1.553301062589424e-15    4    3    6    6
 -0.003182185637500129    4    3    7    1
 0.0001985738651264474    4    3    7    2
 0.01451001097781237    4    3    7    3
 -0.0003948599426733252    4    3    7    6
 0.007118614325015784    4    3    9    4
 0.01320456277889027    4    3    9    7
 -4.04678599414939e-05    4    3   10    4
 -0.0001730231532531888    4    3   10    7
 -9.677732846849809e-05    4    3   11    4
 -0.0001749099584758975    4    3   11    7
 -0.003815325723905869    4    3   12    4
 -0.003403693028078596    4    3   12    7
 -5.784068474900316e-05    4    3   13    1
 0.0001999463992954417    4    3   13    2
 0.0007432949777645046    4    3   13    3
 -0.0005411733521032613    4    3   13    6
 -0.001025237676281635    4    3   13    9
 0.0002619398096925975    4    3   13   10
 0.001899724457883298    4    3   13   11
 0.00102311008218685    4    3   13   12
 -0.002243158813563261    4    3   15    4
 -0.001513556022870748    4    3   15    7
 0.005803609367601366    4    3   15   13
 -0.0001160806601822008    4    3   16    1
 0.001370015596822369    4    3   16    2
 0.004684501883866366    4    3   16    3
 -0.0006056454770209085    4    3   16    6
 -0.002092244184104728    4    3   16    9
 -0.0005783763035809683    4    3   16   10
 -0.001050839173631486    4    3   16   11
 0.00186054352542613    4    3   16   12
 -0.0008042331763566106    4    3   16   15
 0.005408673266685122    4    3   18    4
 0.004508558476826382    4    3   18    7
 0.00217898744201554    4    3   18   13
 0.006004023284739713    4    3   18   16
 1.310198026120333    4    4    1    1
 0.002973364554773171    4    4    2    1
 0.9264575268934044    4    4    2    2
 0.03215312609505467    4    4    3    1
 0.03307047561670232    4    4    3    2
 0.4485839304756578    4    4    3    3
 -1.780180754379192e-15    4    4    4    3
 1.044035767645206    4    4    4    4
 0.9304398413529028    4    4    5    5
 0.004518600874187648    4    4    6    1
 -0.01027752034400631    4    4    6    2
 0.03194596098599091    4    4    6    3
 0.9237035813692197    4    4    6    6
 -1.296862351859695e-15    4    4    7    3
 0.01386036769233507    4    4    7    4
 -2.02794464658751e-15    4    4    7    5
 0.4471281703131176    4    4    7    7
 -1.074467510259567e-15    4    4    8    3
 -1.678172327166094e-15    4    4    8    4
 0.0103572792064629    4    4    8    5
 -2.224628230445573e-15    4    4    8    7
 0.4240396983473127    4    4    8    8
 0.03097209567392724    4    4    9    1
 0.03418555952326396    4    4    9    2
 0.0266831610206537    4    4    9    3
 0.0502601053713979    4    4    9    6
 0.4506358079359854    4    4    9    9
 -0.0001997890200222571    4    4   10    1
 -0.0004623773793757864    4    4   10    2
 -0.001658601041854486    4    4   10    3
 0.0002479993536375313    4    4   10    6
 0.000583828695261627    4    4   10    9
 0.3847159400650185    4    4   10   10
 -0.0004773587448254729    4    4   11    1
 -0.006195460136810645    4    4   11    2
 -0.005099806266698236    4    4   11    3
 -0.0001157359969330722    4    4   11    6
 0.005371104637700996    4    4   11    9
 -0.003121332884971657    4    4   11   10
 0.316894119961061    4    4   11   11
 -0.01105139329387094    4    4   12    1
 -0.02352057814778833    4    4   12    2
 -0.05144529615104413    4    4   12    3
 -0.02162935473295129    4    4   12    6
 -0.01754016053163417    4    4   12    9
 0.005781788719689486    4    4   12   10
 0.009024755990841028    4    4   12   11
 0.2508270789202058    4    4   12   12
 -0.003238939159938195    4    4   13    4
 0.001637343783108997    4    4   13    7
 -1.292266009795565e-15    4    4   13    8
 0.3734103132628602    4    4   13   13
 -1.009170445726917e-15    4    4   14    4
 -0.002265724504027807    4    4   14    5
 0.002280208179853465    4    4   14    8
 0.3711246799268795    4    4   14   14
 -0.001683389511143347    4    4   15    1
 -0.01392777602734009    4    4   15    2
 0.006233249454214675    4    4   15    3
 -0.0007831855521646233    4    4   15    6
 -0.007376220336661898    4    4   15    9
 0.002664058273010658    4    4   15   10
 -0.009893856176287873    4    4   15   11
 0.01913879620392032    4    4   15   12
 0.4592806643880327    4    4   15   15
 0.02260246091772938    4    4   16    4
 0.01687610995153281    4    4   16    7
 -1.097569984314787e-15    4    4   16    8
 0.01067346102090085    4    4   16   13
 0.2912098670906275    4    4   16   16
 0.01947011945420651    4    4   17    5
 0.01546478696961321    4    4   17    8
 0.01039469817796727    4    4   17   14
 0.2863847495086747    4    4   17   17
 0.01713989678957027    4    4   18    1
 0.08187519776573957    4    4   18    2
 0.05745034584077173    4    4   18    3
 1.111025314569708e-15    4    4   18    4
 0.03469280000708375    4    4   18    6
 1.089811941049618e-15    4    4   18    7
 1.192165004083023e-15    4    4   18    8
 0.02360295019903782    4    4   18    9
 -0.002079252041077328    4    4   18   10
 -0.01129403254461172    4    4   18   11
 0.02262667647819775    4    4   18   12
 0.01601455820479649    4    4   18   15
 0.3465423262709466    4    4   18   18
 0.04870937568013134    5    1    5    1
 0.03022714753902838    5    1    5    2
 0.005439998968772349    5    1    5    3
 0.03015830135859592    5    1    6    5
 -0.01067586328624377    5    1    8    1
 -0.0027262378255964    5    1    8    2
 0.001774861687079169    5    1    8    3
 -0.002224862887949076    5    1    8    6
 0.004954062889247755    5    1    9    5