 &FCI NORB=  18,NELEC=14,MS2=0,
  ORBSYM=1,1,1,1,1,1,1,1,1,1,1,1,1,1,1,1,1,1,
  ISYM=1,
 &END
 2.262782893286655    1    1    1    1
 -1.607123474681767e-09    1    1    2    1
 2.262844440283103    1    1    2    2
 -0.1896259791856743    1    1    3    1
 8.639419186598674e-11    1    1    3    2
 0.7433255457934056    1    1    3    3
 -2.505982188185799e-10    1    1    4    1
 0.1962220257265743    1    1    4    2
 1.924161695192489e-10    1    1    4    3
 0.6551897953341405    1    1    4    4
 0.07001343150912764    1    1    5    1
 -2.039625702673281e-11    1    1    5    2
 0.06648111565317251    1    1    5    3
 -2.034830521658893e-10    1    1    5    4
 0.6647268605118758    1    1    5    5
 0.6257299350570311    1    1    6    6
 0.6257299350570308    1    1    7    7
 -1.516128626636496e-10    1    1    8    6
 -1.75644583412072e-10    1    1    8    7
 0.6235880924366639    1    1    8    8
 -1.756447145850304e-10    1    1    9    6
 1.516132106817681e-10    1    1    9    7
 0.6235880924366649    1    1    9    9
 1.554810678514302e-10    1    1   10    1
 -0.1149143505621217    1    1   10    2
 -1.665449465622298e-10    1    1   10    3
 -0.09914973513323286    1    1   10    4
 -1.357593936971456e-10    1    1   10    5
 0.5890203092342576    1    1   10   10
 -1.62728248587209e-15    1    1   11    5
 0.1230970926527079    1    1   11    6
 -0.1939203807599054    1    1   11    7
 5.085376199112344e-11    1    1   11    8
 -1.685070798945682e-10    1    1   11    9
 0.6017141970564042    1    1   11   11
 -1.013745310464255e-15    1    1   12    5
 0.1939203807599055    1    1   12    6
 0.123097092652708    1    1   12    7
 -1.685084658589879e-10    1    1   12    8
 -5.085343792416322e-11    1    1   12    9
 0.6017141970564048    1    1   12   12
 0.07445070352518846    1    1   13    1
 -2.439261240739348e-11    1    1   13    2
 -0.002357447281067145    1    1   13    3
 -1.070217509477509e-10    1    1   13    4
 0.222369865726828    1    1   13    5
 1.679875550043872e-15    1    1   13    6
 -2.671187672326462e-11    1    1   13   10
 0.5063045145095711    1    1   13   13
 2.12567842554293e-11    1    1   14    1
 -0.02587176542067804    1    1   14    2
 7.277631395913173e-11    1    1   14    3
 -0.1173238208322257    1    1   14    4
 2.193800580907007e-10    1    1   14    5
 -0.2408612689891908    1    1   14   10
 2.346076207760413e-10    1    1   14   13
 0.6764331400209882    1    1   14   14
 -0.1516036834242457    1    1   15    1
 6.745341919512497e-11    1    1   15    2
 0.1795078648214425    1    1   15    3
 1.228526432174629e-10    1    1   15    4
 -0.015787539648322    1    1   15    5
 2.181878354147371e-15    1    1   15    8
 1.332631879313445e-15    1    1   15    9
 -8.714244543848215e-11    1    1   15   10
 -0.006898320163027904    1    1   15   13
 3.703967265106714e-12    1    1   15   14
 0.5459468841504265    1    1   15   15
 1.079038763657516e-15    1    1   16    3
 1.296197929149693e-10    1    1   16    6
 -9.349745991719306e-11    1    1   16    7
 -0.02176312671523445    1    1   16    8
 -0.2489297971690566    1    1   16    9
 2.171220425777729e-10    1    1   16   11
 8.679739890150785e-11    1    1   16   12
 0.582008374903886    1    1   16   16
 -1.223657991810351e-15    1    1   17    1
 1.476858369159943e-15    1    1   17    3
 9.349656365315651e-11    1    1   17    6
 1.296189637307126e-10    1    1   17    7
 -0.2489297971690568    1    1   17    8
 0.02176312671523421    1    1   17    9
 -8.679733355214308e-11    1    1   17   11
 2.171226198662774e-10    1    1   17   12
 0.5820083749038867    1    1   17   17
 -1.949921390207198e-10    1    1   18    1
 0.1491310536597627    1    1   18    2
 1.321565740331464e-10    1    1   18    3
 0.1482723054035911    1    1   18    4
 -4.342612679928957e-12    1    1   18    5
 -0.1542887271050069    1    1   18   10
 -2.897501166826373e-11    1    1   18   13
 0.04421451210474212    1    1   18   14
 1.524471575396879e-10    1    1   18   15
 0.5228145075023424    1    1   18   18
 -1.607124510435867e-09    2    1    1    1
 1.862722713702906    2    1    2    1
 1.607061191740333e-09    2    1    2    2
 8.413203048556581e-11    2    1    3    1
 -0.1948733653360547    2    1    3    2
 -1.622472425908244e-13    2    1    3    3
 0.1923339226143552    2    1    4    1
 8.296493484561464e-11    2    1    4    2
 -0.2231016887274532    2    1    4    3
 -2.936488224025166e-13    2    1    4    4
 -2.521544426916096e-11    2    1    5    1
 0.05885534307191652    2    1    5    2
 -1.532832456234028e-13    2    1    5    3
 0.2358105023961265    2    1    5    4
 3.426123960429917e-13    2    1    5    5
 -1.594113443101976e-13    2    1    6    6
 1.621590462849168e-15    2    1    7    6
 -1.591464613032999e-13    2    1    7    7
 0.1756983451142571    2    1    8    6
 0.2035473420276847    2    1    8    7
 8.26511962733852e-14    2    1    8    8
 0.203547342027685    2    1    9    6
 -0.1756983451142571    2    1    9    7
 8.524277960606335e-14    2    1    9    9
 -0.1227436427057788    2    1   10    1
 -5.294149184305278e-11    2    1   10    2
 0.1929924995438095    2    1   10    3
 -1.661424855259846e-13    2    1   10    4
 0.1572526804931815    2    1   10    5
 3.395053221701137e-14    2    1   10   10
 -2.242179347690027e-13    2    1   11    6
 3.524749450045217e-13    2    1   11    7
 -0.05879152053591567    2    1   11    8
 0.1948103393824814    2    1   11    9
 -1.066140700299039e-12    2    1   11   11
 -3.521017275695794e-13    2    1   12    6
 -2.232688437281596e-13    2    1   12    7
 0.1948103393824811    2    1   12    8
 0.05879152053591575    2    1   12    9
 -1.066528958544668e-12    2    1   12   12
 -2.825722782976407e-11    2    1   13    1
 0.06515234411393502    2    1   13    2
 -9.237772004776059e-13    2    1   13    3
 0.1222788730428214    2    1   13    4
 -2.824911724288341e-12    2    1   13    5
 1.019380158551084e-15    2    1   13    9
 0.0278263465367792    2    1   13   10
 -6.113570747856377e-12    2    1   13   13
 -0.01256990534061845    2    1   14    1
 -6.059286152313738e-12    2    1   14    2
 -0.08448354766393883    2    1   14    3
 -1.050966777803855e-12    2    1   14    4
 -0.2572764085005644    2    1   14    5
 -4.223328257428029e-13    2    1   14   10
 1.463616389497314e-15    2    1   14   11
 -0.2697067516883744    2    1   14   13
 6.154634050978378e-12    2    1   14   14
 6.644704361076694e-11    2    1   15    1
 -0.1539613401021732    2    1   15    2
 -1.382644302033762e-13    2    1   15    3
 -0.14247967519493    2    1   15    4
 -2.897038434329512e-13    2    1   15    5
 1.602844183893319e-15    2    1   15    6
 0.1007791029757681    2    1   15   10
 2.600251078339222e-15    2    1   15   12
 -2.02451330725229e-13    2    1   15   13
 -0.00410715633914559    2    1   15   14
 -1.037393458178638e-13    2    1   15   15
 -0.1506217484296298    2    1   16    6
 0.1086465370017869    2    1   16    7
 -3.844336643002194e-14    2    1   16    8
 -4.407288666234388e-13    2    1   16    9
 -0.2517478789809088    2    1   16   11
 -0.1006394279647784    2    1   16   12
 -1.717611569622488e-15    2    1   16   13
 1.127628925359666e-12    2    1   16   16
 -1.178569859855293e-15    2    1   17    2
 -1.095361758183904e-15    2    1   17    4
 -0.1086465370017873    2    1   17    6
 -0.1506217484296298    2    1   17    7
 -4.397112137923691e-13    2    1   17    8
 3.84971063337312e-14    2    1   17    9
 0.1006394279647784    2    1   17   11
 -0.2517478789809093    2    1   17   12
 1.127181681326306e-12    2    1   17   17
 0.151527376731638    2    1   18    1
 6.543880694127837e-11    2    1   18    2
 -0.1531999896620779    2    1   18    3
 9.780602809813938e-14    2    1   18    4
 0.005220015128648024    2    1   18    5
 -3.540541110817475e-14    2    1   18   10
 0.03417346187530296    2    1   18   13
 -2.836122128764344e-13    2    1   18   14
 -0.1767026244911529    2    1   18   15
 -1.020917182031607e-15    2    1   18   16
 -1.392325807374057e-15    2    1   18   17
 1.378896996584444e-13    2    1   18   18
 2.262844440283103    2    2    1    1
 1.607061061888828e-09    2    2    2    1
 2.262906002250888    2    2    2    2
 -0.189630090989256    2    2    3    1
 -2.498673474652655e-10    2    2    3    2
 0.7433181428248243    2    2    3    3
 8.127593691038115e-11    2    2    4    1
 0.1962306245604502    2    2    4    2
 -1.925526606583797e-10    2    2    4    3
 0.6551958367818285    2    2    4    4
 0.07002170351622206    2    2    5    1
 8.116392385977087e-11    2    2    5    2
 0.06647180358669744    2    2    5    3
 2.034152588291301e-10    2    2    5    4
 0.6647250971660055    2    2    5    5
 0.6257344562366095    2    2    6    6
 0.6257344562366091    2    2    7    7
 1.515600491660981e-10    2    2    8    6
 1.755826194476839e-10    2    2    8    7
 0.6235956658029683    2    2    8    8
 1.755824114860403e-10    2    2    9    6
 -1.515596603573596e-10    2    2    9    7
 0.623595665802969    2    2    9    9
 -5.631707587935987e-11    2    2   10    1
 -0.1149132037188323    2    2   10    2
 1.664697198946511e-10    2    2   10    3
 -0.09915142317137622    2    2   10    4
 1.355850262978586e-10    2    2   10    5
 0.5890209311403456    2    2   10   10
 -1.628624953890684e-15    2    2   11    5
 0.1231010957543374    2    2   11    6
 -0.1939266870257601    2    2   11    7
 -5.059279910387608e-11    2    2   11    8
 1.676441248965389e-10    2    2   11    9
 0.6017225616270759    2    2   11   11
 -1.012461766873891e-15    2    2   12    5
 0.1939266870257602    2    2   12    6
 0.1231010957543375    2    2   12    7
 1.676427075678878e-10    2    2   12    8
 5.059312538083442e-11    2    2   12    9
 0.6017225616270765    2    2   12   12
 0.07445967440817053    2    2   13    1
 8.803356152139805e-11    2    2   13    2
 -0.002361043506219675    2    2   13    3
 1.039740772064755e-10    2    2   13    4
 0.2223704577985416    2    2   13    5
 1.680415496499044e-15    2    2   13    6
 2.130355264157221e-11    2    2   13   10
 0.5063064377707382    2    2   13   13
 -4.286847733448585e-13    2    2   14    1
 -0.02588172650439879    2    2   14    2
 -7.300251310050094e-11    2    2   14    3
 -0.1173262717381885    2    2   14    4
 -2.245583043592852e-10    2    2   14    5
 -0.2408600540534618    2    2   14   10
 -2.30779674480946e-10    2    2   14   13
 0.6764346895602038    2    2   14   14
 -0.1516067773737751    2    2   15    1
 -1.98213091616651e-10    2    2   15    2
 0.1795093596155588    2    2   15    3
 -1.230007146866405e-10    2    2   15    4
 -0.01579089783036883    2    2   15    5
 2.17856967130959e-15    2    2   15    8
 1.334507557563639e-15    2    2   15    9
 8.675596992740136e-11    2    2   15   10
 -0.006901388956855718    2    2   15   13
 -3.382632338971918e-12    2    2   15   14
 0.5459469554324429    2    2   15   15
 1.076918076949819e-15    2    2   16    3
 -1.302825501007201e-10    2    2   16    6
 9.397541034141629e-11    2    2   16    7
 -0.02176378153616607    2    2   16    8
 -0.2489372871057657    2    2   16    9
 -2.172764868696296e-10    2    2   16   11
 -8.685894831978466e-11    2    2   16   12
 0.5820171508813166    2    2   16   16
 -1.21457216359502e-15    2    2   17    1
 1.481758232393533e-15    2    2   17    3
 -9.397633898788709e-11    2    2   17    6
 -1.302834473959829e-10    2    2   17    7
 -0.2489372871057658    2    2   17    8
 0.02176378153616582    2    2   17    9
 8.685903714673033e-11    2    2   17   11
 -2.172759799486017e-10    2    2   17   12
 0.5820171508813172    2    2   17   17
 6.647202880909228e-11    2    2   18    1
 0.1491344447355173    2    2   18    2
 -1.321947954759946e-10    2    2   18    3
 0.1482751839285003    2    2   18    4
 4.664984952493531e-12    2    2   18    5
 -0.154289435747016    2    2   18   10
 2.999179368788935e-11    2    2   18   13
 0.04421257703616593    2    2   18   14
 -1.524565113348311e-10    2    2   18   15
 0.5228159089174425    2    2   18   18
 -0.1896259791856744    3    1    1    1
 8.413215946715769e-11    3    1    2    1
 -0.1896300909892559    3    1    2    2
 0.03108861269640245    3    1    3    1
 4.261303393592236e-14    3    1    3    2
 0.0008062754578241975    3    1    3    3
 2.351757555409566e-11    3    1    4    1
 -0.02720028176496473    3    1    4    2
 -3.483814788839521e-12    3    1    4    3
 -0.01122884440840881    3    1    4    4
 -0.003950708156038252    3    1    5    1
 1.102225460634173e-13    3    1    5    2
 0.006773348522210671    3    1    5    3
 5.105380475601252e-12    3    1    5    4
 -0.008220564746056203    3    1    5    5
 -0.002160633152155823    3    1    6    6
 -0.00216063315215582    3    1    7    7
 1.956844385364062e-12    3    1    8    6
 2.267018099953593e-12    3    1    8    7
 -0.004308712396924484    3    1    8    8
 2.26703159113451e-12    3    1    9    6
 -1.956861351310453e-12    3    1    9    7
 -0.004308712396924497    3    1    9    9
 -1.936491611373726e-11    3    1   10    1
 0.02253875544524878    3    1   10    2
 1.326376423738042e-12    3    1   10    3
 -0.000763253048087862    3    1   10    4
 1.472512062589394e-12    3    1   10    5
 -0.001910634690528616    3    1   10   10
 -0.002897162577302032    3    1   11    6
 0.004564030376402229    3    1   11    7
 -8.974038199967659e-13    3    1   11    8
 2.973600103986428e-12    3    1   11    9
 -0.006554787778008051    3    1   11   11
 -0.004564030376402232    3    1   12    6
 -0.002897162577302031    3    1   12    7
 2.97362605312958e-12    3    1   12    8
 8.973976989108351e-13    3    1   12    9
 -0.006554787778008057    3    1   12   12
 -0.004850813476039943    3    1   13    1
 5.682282132904147e-14    3    1   13    2
 0.003205942016218327    3    1   13    3
 3.485687843052316e-12    3    1   13    4
 -0.007158205110927141    3    1   13    5
 3.720912829783536e-13    3    1   13   10
 -0.008155335382253102    3    1   13   13
 4.330363615486901e-12    3    1   14    1
 -0.005152000787796909    3    1   14    2
 6.827398820819808e-13    3    1   14    3
 0.008374312835815858    3    1   14    4
 -4.466207808533688e-12    3    1   14    5
 0.001386115797546314    3    1   14   10
 -5.064451862239368e-12    3    1   14   13
 -0.01047144208817995    3    1   14   14
 0.02444015281384531    3    1   15    1
 1.289304411717517e-14    3    1   15    2
 -0.00393796066809997    3    1   15    3
 -3.033275789809944e-12    3    1   15    4
 0.004624287454235277    3    1   15    5
 1.071698596491557e-12    3    1   15   10
 0.004035063012554437    3    1   15   13
 1.090330346238243e-12    3    1   15   14
 -0.001911015899004385    3    1   15   15
 -2.137369507649137e-12    3    1   16    6
 1.541731108242537e-12    3    1   16    7
 0.0004555690001531156    3    1   16    8
 0.005210864242463864    3    1   16    9
 -3.803774843236632e-12    3    1   16   11
 -1.520609741003391e-12    3    1   16   12
 -0.006677988583197692    3    1   16   16
 -1.541707716119651e-12    3    1   17    6
 -2.137350769989003e-12    3    1   17    7
 0.005210864242463859    3    1   17    8
 -0.0004555690001531125    3    1   17    9
 1.520608363360917e-12    3    1   17   11
 -3.803787563546156e-12    3    1   17   12
 -0.006677988583197704    3    1   17   17
 2.047308020267651e-11    3    1   18    1
 -0.02376515917732788    3    1   18    2
 -1.909071521714498e-12    3    1   18    3
 -0.005532039406978184    3    1   18    4
 1.689754942925445e-12    3    1   18    5
 0.0004839222934438734    3    1   18   10
 1.551569776793318e-12    3    1   18   13
 0.003599702023383408    3    1   18   14
 -2.267587811086664e-12    3    1   18   15
 -0.002279141034261274    3    1   18   18
 8.639441293427209e-11    3    2    1    1
 -0.1948733653360547    3    2    2    1
 -2.498674664949014e-10    3    2    2    2
 4.261972498011884e-14    3    2    3    1
 0.03094472565160027    3    2    3    2
 3.563701274668192e-13    3    2    3    3
 -0.02730378766252712    3    2    4    1
 -2.350636589477815e-11    3    2    4    2
 0.008049331948120535    3    2    4    3
 -4.825088381449653e-12    3    2    4    4
 1.10199746438044e-13    3    2    5    1
 -0.004257561246130533    3    2    5    2
 2.926201971774545e-12    3    2    5    3
 -0.0118420036487152    3    2    5    4
 -3.56291895617483e-12    3    2    5    5
 -9.264050106282858e-13    3    2    6    6
 -9.264108611501071e-13    3    2    7    7
 -0.004532389599850033    3    2    8    6
 -0.005250794226225953    3    2    8    7
 -1.85894532669238e-12    3    2    8    8
 -0.005250794226225963    3    2    9    6
 0.004532389599850038    3    2    9    7
 -1.859008468307616e-12    3    2    9    9
 0.02233618481837106    3    2   10    1
 1.935161217433783e-11    3    2   10    2
 -0.003067523438691073    3    2   10    3
 -3.282320853692668e-13    3    2   10    4
 -0.003414800424404416    3    2   10    5
 -8.224847503696796e-13    3    2   10   10
 -1.24128969451282e-12    3    2   11    6
 1.955485768691421e-12    3    2   11    7
 0.002072622761888673    3    2   11    8
 -0.006867798961054713    3    2   11    9
 -2.787950622587993e-12    3    2   11   11
 -1.955501521582154e-12    3    2   12    6
 -1.241325329514574e-12    3    2   12    7
 -0.006867798961054705    3    2   12    8
 -0.002072622761888677    3    2   12    9
 -2.787934050851318e-12    3    2   12   12
 6.085509446806942e-14    3    2   13    1
 -0.00510691827575971    3    2   13    2
 1.361972253939232e-12    3    2   13    3
 -0.007844524414212073    3    2   13    4
 -2.972671281046443e-12    3    2   13    5
 -0.0008263066657666843    3    2   13   10
 -3.251804595013733e-12    3    2   13   13
 -0.004799332281302297    3    2   14    1
 -4.252330238427715e-12    3    2   14    2
 -0.001658906133362726    3    2   14    3
 3.688011161765576e-12    3    2   14    4
 0.01054564930232722    3    2   14    5
 6.084539949857996e-13    3    2   14   10
 0.01167001454683056    3    2   14   13
 -4.77664859882194e-12    3    2   14   14
 1.313179117280661e-14    3    2   15    1
 0.02437163465531542    3    2   15    2
 -1.694275996492631e-12    3    2   15    3
 0.007029510611464225    3    2   15    4
 2.006642421740541e-12    3    2   15    5
 -0.002477203662991809    3    2   15   10
 1.717027452204524e-12    3    2   15   13
 -0.002646198081555559    3    2   15   14
 -8.229950482075026e-13    3    2   15   15
 0.004969299864625666    3    2   16    6
 -0.003584457272896857    3    2   16    7
 1.977026136316457e-13    3    2   16    8
 2.261379114652584e-12    3    2   16    9
 0.008814482230924106    3    2   16   11
 0.003523701780991678    3    2   16   12
 -2.917934880032775e-12    3    2   16   16
 0.003584457272896866    3    2   17    6
 0.004969299864625666    3    2   17    7
 2.261346290318797e-12    3    2   17    8
 -1.977034144911958e-13    3    2   17    9
 -0.003523701780991677    3    2   17   11
 0.008814482230924124    3    2   17   12
 -2.91791677625719e-12    3    2   17   17
 -0.02370170418545323    3    2   18    1
 -2.047972986348017e-11    3    2   18    2
 0.004420596572012599    3    2   18    3
 -2.385731503276661e-12    3    2   18    4
 -0.003932951124557492    3    2   18    5
 2.075335588556404e-13    3    2   18   10
 -0.003506730369777207    3    2   18   13
 1.591823373016082e-12    3    2   18   14
 0.005259767533226782    3    2   18   15
 -9.858468208445714e-13    3    2   18   18
 0.7433255457934057    3    3    1    1
 -1.623267170572808e-13    3    3    2    1
 0.7433181428248246    3    3    2    2
 0.0008062754578241827    3    3    3    1
 3.563750731039322e-13    3    3    3    2
 0.693650232983863    3    3    3    3
 -6.474290401103539e-12    3    3    4    1
 0.01494908237021212    3    3    4    2
 -7.915707380610918e-14    3    3    4    3
 0.5032225143351328    3    3    4    4
 0.02269677788746578    3    3    5    1
 9.800555192285445e-12    3    3    5    2
 0.1120791201551116    3    3    5    3
 -1.143358140454181e-13    3    3    5    4
 0.5243065122792311    3    3    5    5
 0.549874220560143    3    3    6    6
 0.5498742205601427    3    3    7    7
 -6.144587372218752e-14    3    3    8    6
 -7.139720966561268e-14    3    3    8    7
 0.5179496228417378    3    3    8    8
 -7.135540064110816e-14    3    3    9    6
 6.148929038268729e-14    3    3    9    7
 0.5179496228417383    3    3    9    9
 -4.295640337424501e-12    3    3   10    1
 0.009971646178324557    3    3   10    2
 -7.268204091805071e-14    3    3   10    3
 -0.09602064456742823    3    3   10    4
 -1.314614359792896e-13    3    3   10    5
 0.5089597286190057    3    3   10   10
 0.06309220971451096    3    3   11    6
 -0.099391992671507    3    3   11    7
 8.55175393414589e-14    3    3   11    8
 -2.828597232898655e-13    3    3   11    9
 0.4779068310920636    3    3   11   11
 0.09939199267150703    3    3   12    6
 0.06309220971451099    3    3   12    7
 -2.837107663902166e-13    3    3   12    8
 -8.530829417860524e-14    3    3   12    9
 0.4779068310920639    3    3   12   12
 0.02005198941698437    3    3   13    1
 8.356400647303177e-12    3    3   13    2
 0.01212522481366511    3    3   13    3
 -4.2409544544866e-13    3    3   13    4
 0.1160806946184362    3    3   13    5
 -1.956382670081331e-12    3    3   13   10
 0.3906692331219287    3    3   13   13
 1.087368776633574e-11    3    3   14    1
 -0.02573389802051726    3    3   14    2
 -1.818603860560155e-13    3    3   14    3
 -0.02653310473474984    3    3   14    4
 -1.283941139860616e-12    3    3   14    5
 -0.1742035008096837    3    3   14   10
 1.223905105779764e-12    3    3   14   13
 0.4954517201535144    3    3   14   14
 -0.001589860936363648    3    3   15    1
 -6.976850775830834e-13    3    3   15    2
 0.09575175485928376    3    3   15    3
 -1.544685669470274e-14    3    3   15    4
 0.01795528701341326    3    3   15    5
 1.238951401309508e-15    3    3   15    8
 -1.582752869518378e-13    3    3   15   10
 0.02885090865696124    3    3   15   13
 -3.316591426521567e-13    3    3   15   14
 0.5017912280375469    3    3   15   15
 -1.395094833967995e-13    3    3   16    6
 1.006278510453351e-13    3    3   16    7
 -0.01227452609147619    3    3   16    8
 -0.1403978081953901    3    3   16    9
 -6.33271229336139e-15    3    3   16   11
 -2.470402088620173e-15    3    3   16   12
 0.4539134157515338    3    3   16   16
 -1.010346834831266e-13    3    3   17    6
 -1.39946304226013e-13    3    3   17    7
 -0.1403978081953902    3    3   17    8
 0.01227452609147602    3    3   17    9
 2.504194584798925e-15    3    3   17   11
 -5.957010965799191e-15    3    3   17   12
 0.4539134157515343    3    3   17   17
 -5.787108966380591e-13    3    3   18    1
 0.001340630015205442    3    3   18    2
 1.765689756840932e-14    3    3   18    3
 0.07001699679623874    3    3   18    4
 7.400744639491461e-14    3    3   18    5
 -0.1110919955408505    3    3   18   10
 5.718480609915977e-13    3    3   18   13
 0.05222083826734054    3    3   18   14
 5.549712134302355e-14    3    3   18   15
 0.4642723694009683    3    3   18   18
 -2.505984669812033e-10    4    1    1    1
 0.1923339226143552    4    1    2    1
 8.127606492850657e-11    4    1    2    2
 2.351757495485711e-11    4    1    3    1
 -0.02730378766252712    4    1    3    2
 -6.47429689766286e-12    4    1    3    3
 0.03118827334703157    4    1    4    1
 -4.406076213233592e-14    4    1    4    2
 -0.005614580391195184    4    1    4    3
 -2.475327039508652e-12    4    1    4    4
 -1.245238311246604e-11    4    1    5    1
 0.01433930523067044    4    1    5    2
 -2.036415616694809e-12    4    1    5    3
 -0.00154763874570391    4    1    5    4
 -1.835270994547811e-12    4    1    5    5
 -2.630216445481282e-12    4    1    6    6
 -2.630213742592337e-12    4    1    7    7
 0.001976893416120208    4    1    8    6
 0.002290240127541449    4    1    8    7
 -2.395240480619292e-12    4    1    8    8
 0.002290240127541458    4    1    9    6
 -0.001976893416120212    4    1    9    7
 -2.395218442250403e-12    4    1    9    9
 -0.01494772592977498    4    1   10    1
 -7.109738175672952e-14    4    1   10    2
 0.008901836244826863    4    1   10    3
 2.848021519531967e-12    4    1   10    4
 0.001663271238754709    4    1   10    5
 -4.018646896368542e-12    4    1   10   10
 -1.422544484667799e-12    4    1   11    6
 2.240976037597085e-12    4    1   11    7
 -0.001598184893650449    4    1   11    8
 0.00529571167219259    4    1   11    9
 -3.817800209498404e-12    4    1   11   11
 -2.240962281425646e-12    4    1   12    6
 -1.422513494309222e-12    4    1   12    7
 0.005295711672192584    4    1   12    8
 0.001598184893650452    4    1   12    9
 -3.817812896380117e-12    4    1   12   12
 -1.330220889424187e-11    4    1   13    1
 0.01518978458489074    4    1   13    2
 -6.780572019922094e-13    4    1   13    3
 0.001903406526541938    4    1   13    4
 -2.231103873132747e-12    4    1   13    5
 0.003250589169162122    4    1   13   10
 -1.980937548110448e-12    4    1   13   13
 -0.009180075525596047    4    1   14    1
 -2.91259891016139e-14    4    1   14    2
 -0.005344205151148595    4    1   14    3
 -3.837621620701997e-13    4    1   14    4
 -0.005009421508576922    4    1   14    5
 3.387641037973156e-12    4    1   14   10
 -0.004045953371789707    4    1   14   13
 -4.08790337164873e-12    4    1   14   14
 1.897142857815266e-11    4    1   15    1
 -0.02201737529316762    4    1   15    2
 -3.610746488753786e-12    4    1   15    3
 -0.004370330603242341    4    1   15    4
 -1.087547311331424e-12    4    1   15    5
 0.006674755491483707    4    1   15   10
 -7.733659103421464e-13    4    1   15   13
 -0.004457174787267477    4    1   15   14
 -3.390295367322383e-12    4    1   15   15
 -0.004482950261355632    4    1   16    6
 0.00323364339164538    4    1   16    7
 2.576785575537022e-13    4    1   16    8
 2.947335936097617e-12    4    1   16    9
 -0.006005303247664775    4    1   16   11
 -0.002400696625713543    4    1   16   12
 -3.624772968485629e-12    4    1   16   16
 -0.003233643391645385    4    1   17    6
 -0.00448295026135563    4    1   17    7
 2.947365096364955e-12    4    1   17    8
 -2.576773486595998e-13    4    1   17    9
 0.002400696625713542    4    1   17   11
 -0.006005303247664787    4    1   17   12
 -3.624786235056909e-12    4    1   17   17
 0.0216272031114292    4    1   18    1
 3.244647827342358e-14    4    1   18    2
 -0.007721846546060358    4    1   18    3
 -2.288949221711842e-12    4    1   18    4
 -0.001864187525595116    4    1   18    5
 3.38651462627415e-12    4    1   18   10
 -0.001079586906739186    4    1   18   13
 -2.075279746064945e-12    4    1   18   14
 -0.005124406770863743    4    1   18   15
 -3.118427391313183e-12    4    1   18   18
 0.1962220257265742    4    2    1    1
 8.296482463636333e-11    4    2    2    1
 0.1962306245604501    4    2    2    2
 -0.02720028176496472    4    2    3    1
 -2.350635015034491e-11    4    2    3    2
 0.01494908237021209    4    2    3    3
 -4.406728871845291e-14    4    2    4    1
 0.03126442220617663    4    2    4    2
 -2.43056830103717e-12    4    2    4    3
 0.005766243382906335    4    2    4    4
 0.01455850777114685    4    2    5    1
 1.24803534838854e-11    4    2    5    2
 0.004670961150809914    4    2    5    3
 -6.503229577980007e-13    4    2    5    4
 0.004257171904936235    4    2    5    5
 0.00607962799856192    4    2    6    6
 0.006079627998561914    4    2    7    7
 8.549632764788931e-13    4    2    8    6
 9.904745865885974e-13    4    2    8    7
 0.005548097848372134    4    2    8    8
 9.904697268946289e-13    4    2    9    6
 -8.54954756927257e-13    4    2    9    7
 0.005548097848372151    4    2    9    9
 -7.061780057642582e-14    4    2   10    1
 -0.01480206177906569    4    2   10    2
 3.829809453201294e-12    4    2   10    3
 -0.006589042982714501    4    2   10    4
 7.12763970927086e-13    4    2   10    5
 0.009293133972938855    4    2   10   10
 0.003280111138616475    4    2   11    6
 -0.00516730645076954    4    2   11    7
 -6.861576369420475e-13    4    2   11    8
 2.273657719839999e-12    4    2   11    9
 0.008784009139198714    4    2   11   11
 0.005167306450769541    4    2   12    6
 0.003280111138616475    4    2   12    7
 2.273629077525196e-12    4    2   12    8
 6.861645524769374e-13    4    2   12    9
 0.008784009139198721    4    2   12   12
 0.01537152034652399    4    2   13    1
 1.306267412717285e-11    4    2   13    2
 0.001418756818324238    4    2   13    3
 8.331045414721029e-13    4    2   13    4
 0.005048644843719163    4    2   13    5
 1.309914921782e-12    4    2   13   10
 0.00439034622280346    4    2   13   13
 -3.200097090447592e-14    4    2   14    1
 -0.00943546465370417    4    2   14    2
 -2.316982079718132e-12    4    2   14    3
 0.0008327633846398697    4    2   14    4
 -2.224789184023938e-12    4    2   14    5
 -0.007929643292072951    4    2   14   10
 -1.695901082523101e-12    4    2   14   13
 0.009705124028853348    4    2   14   14
 -0.02196911349178146    4    2   15    1
 -1.897862449588316e-11    4    2   15    2
 0.008339924578950135    4    2   15    3
 -1.891128598828456e-12    4    2   15    4
 0.002480509264735638    4    2   15    5
 2.866898350251349e-12    4    2   15   10
 0.00165259003901964    4    2   15   13
 -1.930243854945315e-12    4    2   15   14
 0.007822622377632069    4    2   15   15
 -1.942775172583279e-12    4    2   16    6
 1.401360937125013e-12    4    2   16    7
 -0.0005992550797316886    4    2   16    8
 -0.006854366442930002    4    2   16    9
 -2.595215090319191e-12    4    2   16   11