&FCI NORB=18 ,NELEC=18 ,MS2=0,
ORBSYM=1,1,1,1,1,1,1,1,1,1,1,1,1,1,1,1,1,1,
ISYM=1,
&END
     -1.00000000     1     18      0      0 
     -1.00000000     1      6      0      0 
     -1.00000000     1     14      0      0 
     -1.00000000     1      2      0      0 
     -1.00000000     2      1      0      0 
     -1.00000000     2      7      0      0 
     -1.00000000     2      3      0      0 
     -1.00000000     2      9      0      0 
     -1.00000000     3     14      0      0 
     -1.00000000     3      2      0      0 
     -1.00000000     3     16      0      0 
     -1.00000000     3      4      0      0 
     -1.00000000     4      3      0      0 
     -1.00000000     4      9      0      0 
     -1.00000000     4      5      0      0 
     -1.00000000     4     11      0      0 
     -1.00000000     5     16      0      0 
     -1.00000000     5      4      0      0 
     -1.00000000     5     18      0      0 
     -1.00000000     5      6      0      0 
     -1.00000000     6      5      0      0 
     -1.00000000     6     11      0      0 
     -1.00000000     6      1      0      0 
     -1.00000000     6      7      0      0 
     -1.00000000     7      6      0      0 
     -1.00000000     7     12      0      0 
     -1.00000000     7      2      0      0 
     -1.00000000     7      8      0      0 
     -1.00000000     8      7      0      0 
     -1.00000000     8     13      0      0 
     -1.00000000     8      9      0      0 
     -1.00000000     8     15      0      0 
     -1.00000000     9      2      0      0 
     -1.00000000     9      8      0      0 
     -1.00000000     9      4      0      0 
     -1.00000000     9     10      0      0 
     -1.00000000    10      9      0      0 
     -1.00000000    10     15      0      0 
     -1.00000000    10     11      0      0 
     -1.00000000    10     17      0      0 
     -1.00000000    11      4      0      0 
     -1.00000000    11     10      0      0 
     -1.00000000    11      6      0      0 
     -1.00000000    11     12      0      0 
     -1.00000000    12     11      0      0 
     -1.00000000    12     17      0      0 
     -1.00000000    12      7      0      0 
     -1.00000000    12     13      0      0 
     -1.00000000    13     12      0      0 
     -1.00000000    13     18      0      0 
     -1.00000000    13      8      0      0 
     -1.00000000    13     14      0      0 
     -1.00000000    14     13      0      0 
     -1.00000000    14      1      0      0 
     -1.00000000    14     15      0      0 
     -1.00000000    14      3      0      0 
     -1.00000000    15      8      0      0 
     -1.00000000    15     14      0      0 
     -1.00000000    15     10      0      0 
     -1.00000000    15     16      0      0 
     -1.00000000    16     15      0      0 
     -1.00000000    16      3      0      0 
     -1.00000000    16     17      0      0 
     -1.00000000    16      5      0      0 
     -1.00000000    17     10      0      0 
     -1.00000000    17     16      0      0 
     -1.00000000    17     12      0      0 
     -1.00000000    17     18      0      0 
     -1.00000000    18     17      0      0 
     -1.00000000    18      5      0      0 
     -1.00000000    18     13      0      0 
     -1.00000000    18      1      0      0 
      4.00000000     1      1      1      1 
      4.00000000     2      2      2      2 
      4.00000000     3      3      3      3 
      4.00000000     4      4      4      4 
      4.00000000     5      5      5      5 
      4.00000000     6      6      6      6 
      4.00000000     7      7      7      7 
      4.00000000     8      8      8      8 
      4.00000000     9      9      9      9 
      4.00000000    10     10     10     10 
      4.00000000    11     11     11     11 
      4.00000000    12     12     12     12 
      4.00000000    13     13     13     13 
      4.00000000    14     14     14     14 
      4.00000000    15     15     15     15 
      4.00000000    16     16     16     16 
      4.00000000    17     17     17     17 
      4.00000000    18     18     18     18 
