 &FCI NORB=10 ,NELEC=10 ,MS2=0,
  ORBSYM=1,1,1,1,1,1,1,1,1,1,
  ISYM=1,
 &END
4.000000  1  1  1  1
4.000000  2  2  2  2
4.000000  3  3  3  3
4.000000  4  4  4  4
4.000000  5  5  5  5
4.000000  6  6  6  6
4.000000  7  7  7  7
4.000000  8  8  8  8
4.000000  9  9  9  9
4.000000  10  10  10  10
-1.000000  1  2  0  0
-1.000000  2  3  0  0
-1.000000  3  4  0  0
-1.000000  4  5  0  0
-1.000000  5  6  0  0
-1.000000  6  7  0  0
-1.000000  7  8  0  0
-1.000000  8  9  0  0
-1.000000  9  10  0  0
-1.000000  10  1  0  0
