&FCI NORB=6,NELEC=6,MS2=0,
 ORBSYM=1,1,1,1,1,1,
 ISYM=1,
&END
   2.0   1   1   1   1
   2.0   2   2   2   2
   2.0   3   3   3   3
   2.0   4   4   4   4
   2.0   5   5   5   5
   2.0   6   6   6   6
  -1.0   1   2   0   0
  -1.0   2   3   0   0
  -1.0   3   4   0   0
  -1.0   4   5   0   0
  -1.0   5   6   0   0
   0.0   0   0   0   0
