 &FCI NORB=  22,NELEC=28,MS2=0,
  ORBSYM=1,1,1,1,1,1,1,1,1,1,1,1,1,1,1,1,1,1,1,1,1,1
  ISYM=1,
 &END
   4.618099046e-01    1    1    1    1
   2.081801068e-02    2    1    1    1
   2.461014271e-02    2    1    2    1
   4.511662291e-01    2    2    1    1
   2.056377822e-02    2    2    2    1
   5.927775283e-01    2    2    2    2
  -5.205377736e-02    3    1    1    1
  -1.122553845e-02    3    1    2    1
  -5.805359363e-02    3    1    2    2
   1.825240747e-02    3    1    3    1
  -1.074886403e-01    3    2    1    1
  -1.336135961e-02    3    2    2    1
  -1.483255707e-01    3    2    2    2
   2.935319251e-02    3    2    3    1
   7.551616074e-02    3    2    3    2
   2.577182156e-01    3    3    1    1
   1.160116392e-02    3    3    2    1
   3.186379731e-01    3    3    2    2
  -8.423716665e-03    3    3    3    1
  -1.530409077e-02    3    3    3    2
   3.217400930e-01    3    3    3    3
   9.497849213e-02    4    1    1    1
   8.454788904e-03    4    1    2    1
   1.297670052e-01    4    1    2    2
  -2.219915422e-02    4    1    3    1
  -4.957722423e-02    4    1    3    2
   4.195375130e-02    4    1    3    3
   9.145174128e-02    4    1    4    1
  -1.810287825e-02    4    2    1    1
   5.665325930e-03    4    2    2    1
  -2.810578658e-02    4    2    2    2
   5.877540704e-04    4    2    3    1
   1.679656749e-02    4    2    3    2
  -8.066440108e-03    4    2    3    3
  -1.154912063e-02    4    2    4    1
   3.561883081e-02    4    2    4    2
   3.440520722e-02    4    3    1    1
  -1.721524584e-03    4    3    2    1
   5.086076026e-02    4    3    2    2
  -8.264332474e-03    4    3    3    1
  -2.562304675e-02    4    3    3    2
   5.828460004e-03    4    3    3    3
   1.686341797e-02    4    3    4    1
  -1.710862187e-02    4    3    4    2
   1.871803361e-02    4    3    4    3
   5.198090909e-01    4    4    1    1
   2.127978892e-02    4    4    2    1
   5.902852423e-01    4    4    2    2
  -6.544950747e-02    4    4    3    1
  -1.607912380e-01    4    4    3    2
   3.040827487e-01    4    4    3    3
   1.739800502e-01    4    4    4    1
  -3.816411720e-02    4    4    4    2
   6.884394149e-02    4    4    4    3
   7.406935787e-01    4    4    4    4
  -1.040139475e-01    5    1    1    1
  -8.455957970e-03    5    1    2    1
  -1.461672678e-01    5    1    2    2
   3.187322165e-02    5    1    3    1
   5.541533460e-02    5    1    3    2
  -5.378620560e-02    5    1    3    3
  -7.447182688e-02    5    1    4    1
   1.744193692e-02    5    1    4    2
  -2.127612653e-02    5    1    4    3
  -1.599312186e-01    5    1    4    4
   1.106665944e-01    5    1    5    1
   4.381517279e-02    5    2    1    1
  -5.988206007e-03    5    2    2    1
   6.434068455e-02    5    2    2    2
  -5.416326810e-03    5    2    3    1
  -2.278985079e-02    5    2    3    2
   4.147620170e-03    5    2    3    3
   2.637805470e-02    5    2    4    1
  -1.149564901e-03    5    2    4    2
   6.419709359e-03    5    2    4    3
   6.911063414e-02    5    2    4    4
  -2.779448203e-02    5    2    5    1
   4.231525764e-02    5    2    5    2
   6.503949445e-02    5    3    1    1
   8.686473494e-03    5    3    2    1
   6.583857498e-02    5    3    2    2
  -1.946977382e-02    5    3    3    1
  -3.737395289e-02    5    3    3    2
   4.557829267e-03    5    3    3    3
   2.363584729e-02    5    3    4    1
  -8.450944812e-03    5    3    4    2
   1.596622950e-02    5    3    4    3
   9.184422163e-02    5    3    4    4
  -3.819447952e-02    5    3    5    1
   4.276232085e-03    5    3    5    2
   3.117218956e-02    5    3    5    3
   2.610250591e-02    5    4    1    1
   9.822089803e-03    5    4    2    1
   6.961762203e-02    5    4    2    2
  -1.255047538e-02    5    4    3    1
  -2.671691429e-02    5    4    3    2
   2.836276849e-02    5    4    3    3
   2.522046508e-02    5    4    4    1
  -1.553156974e-03    5    4    4    2
   1.934115312e-02    5    4    4    3
   9.383753258e-02    5    4    4    4
  -3.434403080e-02    5    4    5    1
   1.203019011e-02    5    4    5    2
   1.934208765e-02    5    4    5    3
   5.935192712e-02    5    4    5    4
   5.136297235e-01    5    5    1    1
   1.664886904e-02    5    5    2    1
   5.712293766e-01    5    5    2    2
  -7.229358657e-02    5    5    3    1
  -1.490610748e-01    5    5    3    2
   2.999307158e-01    5    5    3    3
   1.298090226e-01    5    5    4    1
  -2.703269476e-02    5    5    4    2
   5.945673919e-02    5    5    4    3
   6.480654159e-01    5    5    4    4
  -1.853464587e-01    5    5    5    1
   7.562687422e-02    5    5    5    2
   9.820393546e-02    5    5    5    3
   8.634399420e-02    5    5    5    4
   6.907974065e-01    5    5    5    5
   1.828545331e-02    6    1    1    1
   6.036138349e-03    6    1    2    1
   4.633165375e-02    6    1    2    2
  -1.210782567e-02    6    1    3    1
  -1.699927366e-02    6    1    3    2
   2.215998508e-02    6    1    3    3
   2.490928121e-02    6    1    4    1
   5.463463837e-03    6    1    4    2
   3.557533718e-03    6    1    4    3
   4.313419411e-02    6    1    4    4
  -2.697636090e-02    6    1    5    1
  -4.476396209e-03    6    1    5    2
   7.582771244e-03    6    1    5    3
   1.492145544e-02    6    1    5    4
   3.548392559e-02    6    1    5    5
   3.112078471e-02    6    1    6    1
   1.097301213e-01    6    2    1    1
   1.960112979e-02    6    2    2    1
   1.580004724e-01    6    2    2    2
  -3.138787917e-02    6    2    3    1
  -7.580488371e-02    6    2    3    2
   3.177554749e-02    6    2    3    3
   6.091647940e-02    6    2    4    1
  -1.693563901e-02    6    2    4    2
   2.339031237e-02    6    2    4    3
   1.746904398e-01    6    2    4    4
  -6.959820092e-02    6    2    5    1
   3.689823127e-02    6    2    5    2
   3.415964624e-02    6    2    5    3
   3.467636723e-02    6    2    5    4
   1.686257748e-01    6    2    5    5
   1.720457047e-02    6    2    6    1
   1.098211937e-01    6    2    6    2
  -6.344111643e-02    6    3    1    1
  -1.010460060e-02    6    3    2    1
  -8.427744275e-02    6    3    2    2
   1.874162573e-02    6    3    3    1
   4.161330840e-02    6    3    3    2
  -3.950094382e-03    6    3    3    3
  -2.764296348e-02    6    3    4    1
   8.194088628e-03    6    3    4    2
  -1.452435566e-02    6    3    4    3
  -9.045917415e-02    6    3    4    4
   3.134289935e-02    6    3    5    1
  -1.356569862e-02    6    3    5    2
  -2.132947623e-02    6    3    5    3
  -1.318821589e-02    6    3    5    4
  -8.576175197e-02    6    3    5    5
  -8.447407224e-03    6    3    6    1
  -4.530129883e-02    6    3    6    2
   3.073205202e-02    6    3    6    3
   4.104665468e-02    6    4    1    1
   1.113393694e-02    6    4    2    1
   2.665490352e-02    6    4    2    2
  -9.008862731e-03    6    4    3    1
  -1.648903458e-02    6    4    3    2
  -5.988124557e-03    6    4    3    3
   1.577432442e-02    6    4    4    1
   9.952888148e-03    6    4    4    2
  -1.229577613e-04    6    4    4    3
   5.635493215e-02    6    4    4    4
  -7.584696965e-03    6    4    5    1
   1.360797050e-02    6    4    5    2
   1.211404851e-02    6    4    5    3
   6.847681763e-03    6    4    5    4
   4.799596710e-02    6    4    5    5
  -3.756928638e-03    6    4    6    1
   2.834493055e-02    6    4    6    2
  -1.190475510e-02    6    4    6    3
   3.056899165e-02    6    4    6    4
   9.075673396e-03    6    5    1    1
  -9.948589173e-03    6    5    2    1
   4.242095030e-02    6    5    2    2
  -2.609917048e-03    6    5    3    1
  -1.015189277e-02    6    5    3    2
   7.680474685e-03    6    5    3    3
   1.755015351e-02    6    5    4    1
   3.990901498e-03    6    5    4    2
   5.366433394e-03    6    5    4    3
   3.587282025e-02    6    5    4    4
  -1.862416867e-02    6    5    5    1
   1.872130218e-02    6    5    5    2
  -5.004863566e-04    6    5    5    3
   1.548171103e-02    6    5    5    4
   4.094135989e-02    6    5    5    5
   1.316995380e-02    6    5    6    1
   1.442369751e-02    6    5    6    2
  -5.384839883e-03    6    5    6    3
  -1.823508945e-03    6    5    6    4
   2.596103192e-02    6    5    6    5
   3.450793754e-01    6    6    1    1
   1.310308412e-02    6    6    2    1
   4.159619706e-01    6    6    2    2
  -2.671427985e-02    6    6    3    1
  -6.708965063e-02    6    6    3    2
   2.880729377e-01    6    6    3    3
   6.141743411e-02    6    6    4    1
  -2.348047616e-03    6    6    4    2
   1.909969561e-02    6    6    4    3
   4.122572026e-01    6    6    4    4
  -6.721384596e-02    6    6    5    1
   2.691292052e-02    6    6    5    2
   2.976650379e-02    6    6    5    3
   3.260845670e-02    6    6    5    4
   3.986841621e-01    6    6    5    5
   2.360497292e-02    6    6    6    1
   4.982565280e-02    6    6    6    2
  -3.602301027e-02    6    6    6    3
   5.841216548e-03    6    6    6    4
   1.924545198e-02    6    6    6    5
   3.786482451e-01    6    6    6    6
   3.050034122e-02    7    1    1    1
  -3.192932512e-03    7    1    2    1
   2.214820513e-02    7    1    2    2
  -4.457096465e-03    7    1    3    1
  -1.298162525e-02    7    1    3    2
  -1.765062210e-03    7    1    3    3
   7.450032775e-03    7    1    4    1
  -3.329001847e-03    7    1    4    2
   4.870535628e-03    7    1    4    3
   4.026237552e-02    7    1    4    4
  -8.165401960e-03    7    1    5    1
   6.661639684e-03    7    1    5    2
   6.469976108e-03    7    1    5    3
  -2.813742195e-03    7    1    5    4
   3.370863009e-02    7    1    5    5
   8.203465732e-03    7    1    6    1
   1.514933933e-02    7    1    6    2
  -6.739132594e-03    7    1    6    3
   9.358350691e-03    7    1    6    4
   5.585412330e-03    7    1    6    5
   1.097679979e-03    7    1    6    6
   3.298633915e-02    7    1    7    1
  -2.728161210e-02    7    2    1    1
  -1.113339431e-03    7    2    2    1
  -3.357334830e-02    7    2    2    2
   5.864823338e-03    7    2    3    1
   1.634476122e-02    7    2    3    2
  -1.148000566e-02    7    2    3    3
  -1.409276326e-02    7    2    4    1
   8.103208601e-03    7    2    4    2
  -8.311503773e-03    7    2    4    3
  -4.209274390e-02    7    2    4    4
   1.588085605e-02    7    2    5    1
  -6.545852257e-03    7    2    5    2
  -7.663689327e-03    7    2    5    3
  -7.271464228e-03    7    2    5    4
  -4.049666458e-02    7    2    5    5
  -1.878880018e-03    7    2    6    1
  -2.314236490e-02    7    2    6    2
   8.965447360e-03    7    2    6    3
   5.026588683e-04    7    2    6    4
  -1.570009503e-03    7    2    6    5
  -1.193053188e-02    7    2    6    6
   7.555873885e-04    7    2    7    1
   1.893046596e-02    7    2    7    2
   1.816641997e-02    7    3    1    1
   1.502350825e-03    7    3    2    1
   2.580365341e-02    7    3    2    2
  -4.582807384e-03    7    3    3    1
  -1.245665150e-02    7    3    3    2
   2.922204313e-03    7    3    3    3
   7.989369658e-03    7    3    4    1
  -6.372677194e-03    7    3    4    2
   6.446762328e-03    7    3    4    3
   3.124806013e-02    7    3    4    4
  -9.927332965e-03    7    3    5    1
   3.634901200e-03    7    3    5    2
   6.534557742e-03    7    3    5    3
   6.159262292e-03    7    3    5    4
   2.802506225e-02    7    3    5    5
   2.413347476e-03    7    3    6    1
   1.328586832e-02    7    3    6    2
  -8.734412872e-03    7    3    6    3
   1.608728134e-03    7    3    6    4
   2.290656361e-03    7    3    6    5
   1.130423857e-02    7    3    6    6
   3.006379082e-03    7    3    7    1
  -3.371250945e-03    7    3    7    2
   4.191110657e-03    7    3    7    3
   5.666628981e-02    7    4    1    1
   4.112182030e-03    7    4    2    1
   8.054170170e-02    7    4    2    2
  -1.164851914e-02    7    4    3    1
  -3.044614700e-02    7    4    3    2
   3.155926760e-02    7    4    3    3
   4.221124290e-02    7    4    4    1
  -1.236759195e-02    7    4    4    2
   1.492639857e-02    7    4    4    3
   1.096392928e-01    7    4    4    4
  -4.038096308e-02    7    4    5    1
   1.215703098e-02    7    4    5    2
   1.626930558e-02    7    4    5    3
   2.308021399e-02    7    4    5    4
   8.963393090e-02    7    4    5    5
   1.421154699e-02    7    4    6    1
   3.662145750e-02    7    4    6    2
  -1.612808361e-02    7    4    6    3
   6.123561347e-03    7    4    6    4
   1.088233483e-02    7    4    6    5
   4.553548002e-02    7    4    6    6
   1.010543055e-02    7    4    7    1
  -1.264315509e-02    7    4    7    2
   7.431469217e-03    7    4    7    3
   3.404674470e-02    7    4    7    4
   4.957038116e-03    7    5    1    1
   2.129975126e-03    7    5    2    1
   2.921694699e-03    7    5    2    2
  -2.235259618e-03    7    5    3    1
  -4.513093509e-03    7    5    3    2
  -2.054475707e-03    7    5    3    3
  -6.273094756e-03    7    5    4    1
  -9.962749203e-04    7    5    4    2
   3.416419453e-03    7    5    4    3
   1.515257882e-02    7    5    4    4
   2.041755774e-03    7    5    5    1
  -4.498573258e-03    7    5    5    2
   5.178460166e-03    7    5    5    3
   7.260828807e-03    7    5    5    4
   1.557043818e-02    7    5    5    5
   4.471003059e-03    7    5    6    1
   6.914067595e-03    7    5    6    2
  -2.184468977e-03    7    5    6    3
   4.486913192e-03    7    5    6    4
   2.035161845e-03    7    5    6    5
  -9.928508135e-04    7    5    6    6
   1.117977634e-02    7    5    7    1
   5.900967197e-04    7    5    7    2
   2.677404253e-03    7    5    7    3
   5.821861250e-03    7    5    7    4
   1.485516255e-02    7    5    7    5
  -5.006730848e-04    7    6    1    1
   2.242567346e-03    7    6    2    1
  -1.500961814e-02    7    6    2    2
  -4.502859108e-05    7    6    3    1
   4.400062828e-03    7    6    3    2
  -7.741652023e-03    7    6    3    3
   6.191616315e-03    7    6    4    1
   6.752006283e-03    7    6    4    2
  -2.172068941e-03    7    6    4    3
  -5.670174155e-03    7    6    4    4
   3.588021873e-03    7    6    5    1
   7.540970477e-04    7    6    5    2
   6.916008145e-04    7    6    5    3
   2.022924524e-03    7    6    5    4
  -4.257515678e-03    7    6    5    5
  -8.651694870e-03    7    6    6    1
   1.787130112e-03    7    6    6    2
   1.892654948e-03    7    6    6    3
   4.935246548e-03    7    6    6    4
  -3.323006446e-03    7    6    6    5
  -1.213325586e-02    7    6    6    6
  -2.140278101e-02    7    6    7    1
  -1.060491972e-02    7    6    7    2
  -3.525183075e-03    7    6    7    3
  -2.815866668e-03    7    6    7    4
  -9.169589309e-03    7    6    7    5
   3.642043244e-02    7    6    7    6
   3.112929380e-01    7    7    1    1
   1.269953121e-02    7    7    2    1
   3.337440744e-01    7    7    2    2
  -2.336989829e-02    7    7    3    1
  -5.406846750e-02    7    7    3    2
   2.202230065e-01    7    7    3    3
   5.599775867e-02    7    7    4    1
  -1.779948583e-02    7    7    4    2
   2.237909295e-02    7    7    4    3
   3.582909637e-01    7    7    4    4
  -4.850864318e-02    7    7    5    1
   2.449999488e-02    7    7    5    2
   3.041768310e-02    7    7    5    3
   2.953535152e-02    7    7    5    4
   3.391696561e-01    7    7    5    5
  -5.544668532e-03    7    7    6    1
   4.556793674e-02    7    7    6    2
  -3.479439158e-02    7    7    6    3
   1.193619866e-02    7    7    6    4
   2.505198363e-03    7    7    6    5
   2.881134894e-01    7    7    6    6
  -3.537198507e-02    7    7    7    1
  -1.346526690e-03    7    7    7    2
   9.431643207e-03    7    7    7    3
   1.513266506e-02    7    7    7    4
  -1.938209295e-02    7    7    7    5
   2.461451710e-02    7    7    7    6
   3.980488358e-01    7    7    7    7
  -1.069026374e-02    8    1    1    1
  -1.038183562e-02    8    1    2    1
  -1.293839114e-02    8    1    2    2
   9.202055966e-03    8    1    3    1
   1.082936220e-02    8    1    3    2
   1.938647736e-03    8    1    3    3
  -1.232103552e-03    8    1    4    1
   6.822024691e-03    8    1    4    2
  -3.178870447e-03    8    1    4    3
  -1.988960053e-02    8    1    4    4
   8.577046000e-03    8    1    5    1
  -3.967859066e-03    8    1    5    2
  -2.265927920e-03    8    1    5    3
  -6.961293538e-03    8    1    5    4
  -1.528011482e-02    8    1    5    5
  -7.078182262e-03    8    1    6    1
  -2.046190891e-02    8    1    6    2
   1.141062031e-02    8    1    6    3
   2.926459169e-03    8    1    6    4
  -1.169819804e-04    8    1    6    5
  -3.594619190e-03    8    1    6    6
   5.471940948e-03    8    1    7    1
   2.815241775e-03    8    1    7    2
  -4.426177720e-03    8    1    7    3
  -1.160793770e-03    8    1    7    4
  -4.083996680e-03    8    1    7    5
   5.539096801e-03    8    1    7    6
  -1.825066930e-02    8    1    7    7
   6.092468244e-02    8    1    8    1
  -1.185552826e-02    8    2    1    1
  -7.310074131e-03    8    2    2    1
   1.726070141e-02    8    2    2    2
   1.733142121e-03    8    2    3    1
  -2.466336784e-03    8    2    3    2
   6.706117635e-03    8    2    3    3
   1.034197925e-02    8    2    4    1
   6.278413181e-03    8    2    4    2
  -1.654214698e-03    8    2    4    3
   1.812416712e-02    8    2    4    4
  -7.466815556e-03    8    2    5    1
  -2.736230389e-03    8    2    5    2
   6.417262708e-03    8    2    5    3
  -2.517677619e-04    8    2    5    4
   8.783207064e-03    8    2    5    5
  -4.077578314e-03    8    2    6    1
   3.699243774e-03    8    2    6    2
   4.744128295e-04    8    2    6    3
   5.695016734e-03    8    2    6    4
   8.930009642e-04    8    2    6    5
   7.647288878e-03    8    2    6    6
  -1.163103872e-02    8    2    7    1
   5.931434803e-04    8    2    7    2
  -2.671378639e-03    8    2    7    3
  -3.205069616e-04    8    2    7    4
  -3.666033957e-03    8    2    7    5
   1.423512478e-02    8    2    7    6
   1.116035017e-02    8    2    7    7
   1.270807029e-02    8    2    8    1
   8.266705821e-02    8    2    8    2
   1.458325510e-02    8    3    1    1
   5.442487095e-03    8    3    2    1
   1.197242915e-03    8    3    2    2
  -2.917610927e-03    8    3    3    1
  -4.007563821e-03    8    3    3    2
  -3.564720132e-03    8    3    3    3
  -1.089453423e-03    8    3    4    1
  -4.027248559e-03    8    3    4    2
   2.422945025e-03    8    3    4    3
   4.292997653e-03    8    3    4    4
   6.482938911e-04    8    3    5    1
   4.587753606e-03    8    3    5    2
  -1.470190225e-03    8    3    5    3
   2.253698135e-03    8    3    5    4
   5.505186763e-03    8    3    5    5
   2.827567751e-03    8    3    6    1
   5.684512637e-03    8    3    6    2
  -3.530401091e-03    8    3    6    3
  -9.446191234e-04    8    3    6    4
   2.125489949e-04    8    3    6    5
   3.256163007e-04    8    3    6    6
   5.556905648e-03    8    3    7    1
  -2.370427433e-03    8    3    7    2
   2.393705660e-03    8    3    7    3
   2.314250681e-03    8    3    7    4
   2.585949183e-03    8    3    7    5
  -6.216191732e-03    8    3    7    6
   5.746640021e-05    8    3    7    7
  -1.397289410e-02    8    3    8    1
  -4.125763170e-02    8    3    8    2
   2.350555934e-02    8    3    8    3
   1.073449538e-02    8    4    1    1
   1.255639458e-03    8    4    2    1
   9.409264624e-03    8    4    2    2
   4.674220939e-04    8    4    3    1
  -1.972794465e-03    8    4    3    2
   5.117593892e-03    8    4    3    3
   8.755096955e-04    8    4    4    1
   5.859857884e-03    8    4    4    2
   1.463967700e-04    8    4    4    3
  -1.311946148e-02    8    4    4    4
  -1.970029119e-03    8    4    5    1
  -1.629463093e-03    8    4    5    2
   1.683041573e-03    8    4    5    3
   2.064465795e-04    8    4    5    4
   4.807347248e-03    8    4    5    5
   2.691821293e-03    8    4    6    1
  -3.609502485e-03    8    4    6    2
   2.785612595e-03    8    4    6    3
   4.110762786e-03    8    4    6    4
   1.174010780e-03    8    4    6    5
   2.214963689e-03    8    4    6    6
   1.131681596e-02    8    4    7    1
   1.677530143e-03    8    4    7    2
  -1.787663341e-03    8    4    7    3
   1.223427031e-03    8    4    7    4
  -6.998401850e-04    8    4    7    5
  -5.511711421e-04    8    4    7    6
  -1.553281361e-02    8    4    7    7
   5.211154937e-02    8    4    8    1
  -2.366813438e-02    8    4    8    2
   8.262373996e-03    8    4    8    3
   8.150077545e-02    8    4    8    4
  -5.353884831e-03    8    5    1    1
   6.209383021e-04    8    5    2    1
  -1.512965812e-02    8    5    2    2
   1.335723023e-03    8    5    3    1
   5.686482289e-03    8    5    3    2
  -6.015820088e-03    8    5    3    3
  -6.938650980e-03    8    5    4    1
  -2.783184379e-03    8    5    4    2
  -4.571847457e-04    8    5    4    3
  -8.960412842e-03    8    5    4    4
   4.990226996e-03    8    5    5    1
  -3.885926496e-04    8    5    5    2
  -3.507910676e-03    8    5    5    3
  -1.660856597e-03    8    5    5    4
  -1.112513038e-02    8    5    5    5
  -2.031973825e-03    8    5    6    1
  -2.410596908e-03    8    5    6    2
   7.928490597e-04    8    5    6    3
  -3.404206812e-03    8    5    6    4
  -2.681340934e-03    8    5    6    5
  -4.763752176e-03    8    5    6    6
  -4.216853922e-03    8    5    7    1
  -5.102369286e-04    8    5    7    2
   1.054888987e-03    8    5    7    3
  -2.289915364e-03    8    5    7    4
   2.069113461e-03    8    5    7    5
  -1.312159019e-03    8    5    7    6
   1.938696824e-03    8    5    7    7
  -2.686406251e-02    8    5    8    1
  -4.824405542e-03    8    5    8    2
   8.571882585e-03    8    5    8    3
  -1.858886956e-02    8    5    8    4
   2.480638545e-02    8    5    8    5
  -1.176909807e-02    8    6    1    1
  -8.783344708e-03    8    6    2    1
   4.922271430e-03    8    6    2    2
   4.382530423e-03    8    6    3    1
   2.882821381e-03    8    6    3    2
   3.731937999e-03    8    6    3    3
   4.621908887e-03    8    6    4    1
   4.079503717e-03    8    6    4    2
  -1.522330902e-03    8    6    4    3
   3.721295822e-03    8    6    4    4
  -1.647575735e-03    8    6    5    1
  -1.620763371e-03    8    6    5    2
   7.120401642e-04    8    6    5    3
  -1.911063764e-03    8    6    5    4
  -2.457265175e-03    8    6    5    5
  -4.918100517e-04    8    6    6    1
  -6.272548035e-03    8    6    6    2
   3.986535396e-03    8    6    6    3
   1.478619608e-03    8    6    6    4
   3.253367997e-03    8    6    6    5
   5.084114182e-03    8    6    6    6
  -2.195327864e-04    8    6    7    1
   4.974303979e-03    8    6    7    2
  -2.352138413e-03    8    6    7    3
   2.665240311e-04    8    6    7    4
  -1.193709334e-03    8    6    7    5
   1.184551658e-03    8    6    7    6
  -4.256135789e-03    8    6    7    7
   1.819945102e-02    8    6    8    1
   4.011257335e-02    8    6    8    2
  -2.208901200e-02    8    6    8    3
   6.145334920e-04    8    6    8    4
  -6.564132572e-03    8    6    8    5
   2.736045204e-02    8    6    8    6
   2.128546341e-02    8    7    1    1
   4.081981605e-04    8    7    2    1
   2.114928056e-02    8    7    2    2
  -3.765312909e-03    8    7    3    1
  -1.001036586e-02    8    7    3    2
   4.044408074e-03    8    7    3    3
   1.017958800e-02    8    7    4    1
  -2.960315861e-03    8    7    4    2
   4.109421541e-03    8    7    4    3
   2.297350853e-02    8    7    4    4
  -1.086820361e-02    8    7    5    1
   4.214324862e-03    8    7    5    2
   5.120305951e-03    8    7    5    3
   2.870336557e-03    8    7    5    4
   2.478509119e-02    8    7    5    5
   4.075578302e-03    8    7    6    1
   1.111790455e-02    8    7    6    2
  -5.009066315e-03    8    7    6    3
   3.267372589e-03    8    7    6    4
   2.667610295e-03    8    7    6    5
   6.622097297e-03    8    7    6    6
   7.682705664e-03    8    7    7    1
  -1.932709782e-03    8    7    7    2
   1.670256818e-03    8    7    7    3
   5.773035652e-03    8    7    7    4
   1.441013952e-03    8    7    7    5
  -3.402598163e-03    8    7    7    6
  -1.367432411e-03    8    7    7    7
   1.033820766e-02    8    7    8    1
  -1.260200333e-02    8    7    8    2
   6.306333208e-03    8    7    8    3
   2.069199744e-02    8    7    8    4
  -4.674294816e-03    8    7    8    5
  -3.011059164e-03    8    7    8    6
   1.240819063e-02    8    7    8    7
   5.564754271e-01    8    8    1    1
   3.458350978e-02    8    8    2    1
   6.636960873e-01    8    8    2    2
  -8.131262219e-02    8    8    3    1
  -1.919808542e-01    8    8    3    2
   3.276585869e-01    8    8    3    3
   1.922091400e-01    8    8    4    1
  -4.864992571e-02    8    8    4    2
   6.788429768e-02    8    8    4    3
   7.406857659e-01    8    8    4    4
  -1.971251854e-01    8    8    5    1
   7.144486916e-02    8    8    5    2
   9.837906329e-02    8    8    5    3
   7.561367308e-02    8    8    5    4
   6.798874690e-01    8    8    5    5
   5.523368580e-02    8    8    6    1
   2.069089277e-01    8    8    6    2
  -1.095455061e-01    8    8    6    3
   4.747247414e-02    8    8    6    4
   3.395866226e-02    8    8    6    5
   4.430849380e-01    8    8    6    6
   3.603473737e-02    8    8    7    1
  -4.762554213e-02    8    8    7    2
   3.379706307e-02    8    8    7    3
   1.107085145e-01    8    8    7    4
   4.731930961e-03    8    8    7    5
  -8.833837364e-03    8    8    7    6
   3.801725329e-01    8    8    7    7
  -2.688707440e-02    8    8    8    1
   1.627856535e-02    8    8    8    2
   6.872445215e-03    8    8    8    3
  -1.381654717e-03    8    8    8    4
  -1.410128434e-02    8    8    8    5
  -9.270849665e-04    8    8    8    6
   2.980276311e-02    8    8    8    7
   8.423631980e-01    8    8    8    8
  -9.709053322e-03    9    1    1    1
  -7.257149641e-04    9    1    2    1
  -6.704040212e-04    9    1    2    2
   1.154004028e-03    9    1    3    1
   2.560079468e-03    9    1    3    2
   3.331262791e-03    9    1    3    3
   2.799642209e-03    9    1    4    1
   2.012941533e-04    9    1    4    2
  -6.084311965e-04    9    1    4    3
  -3.679122905e-03    9    1    4    4
  -1.308982056e-03    9    1    5    1
  -6.535121102e-04    9    1    5    2
  -1.660503496e-03    9    1    5    3
   2.379040936e-03    9    1    5    4
  -6.855443699e-03    9    1    5    5
  -6.554423434e-04    9    1    6    1
  -2.628224136e-03    9    1    6    2
   1.305909515e-03    9    1    6    3
  -3.824541415e-03    9    1    6    4
   1.832137875e-04    9    1    6    5
   2.907569737e-03    9    1    6    6
  -1.270675523e-02    9    1    7    1
  -1.905078460e-03    9    1    7    2
  -6.808753008e-04    9    1    7    3
  -1.300707127e-03    9    1    7    4
  -4.740485145e-03    9    1    7    5
   8.855190040e-03    9    1    7    6
   1.511614894e-02    9    1    7    7
  -4.637919842e-03    9    1    8    1
   8.970558307e-03    9    1    8    2
  -3.810614593e-03    9    1    8    3
  -8.813284374e-03    9    1    8    4
   2.696629179e-03    9    1    8    5
   2.271883456e-03    9    1    8    6
  -4.222586880e-03    9    1    8    7
  -2.845858493e-03    9    1    8    8
   7.160553344e-03    9    1    9    1
  -4.534132613e-03    9    2    1    1
   1.424489119e-03    9    2    2    1
  -1.243688195e-02    9    2    2    2
   2.000659805e-04    9    2    3    1
   2.249159219e-03    9    2    3    2
  -8.380294225e-03    9    2    3    3
  -3.374093411e-03    9    2    4    1
  -2.170948090e-03    9    2    4    2
  -2.114745892e-04    9    2    4    3
  -6.777247787e-03    9    2    4    4
   3.546272474e-03    9    2    5    1
   2.293296580e-04    9    2    5    2
  -1.296540592e-03    9    2    5    3
  -7.129692337e-04    9    2    5    4
  -7.708522594e-03    9    2    5    5
  -2.857135625e-03    9    2    6    1
   1.263222153e-03    9    2    6    2
  -3.899201552e-04    9    2    6    3
  -3.744673677e-05    9    2    6    4
  -1.985614035e-03    9    2    6    5
  -9.260408372e-03    9    2    6    6
  -3.708998690e-03    9    2    7    1
   1.171221580e-03    9    2    7    2
   3.497519399e-04    9    2    7    3
  -3.553960112e-03    9    2    7    4
  -2.209739314e-04    9    2    7    5
   1.352641978e-03    9    2    7    6
   1.331871064e-02    9    2    7    7
  -8.101262929e-03    9    2    8    1
  -5.094336638e-03    9    2    8    2
   3.536010125e-03    9    2    8    3
  -6.441542516e-03    9    2    8    4
   3.955374588e-03    9    2    8    5
  -5.037338531e-03    9    2    8    6
  -1.306213389e-03    9    2    8    7
  -9.682512047e-03    9    2    8    8
   1.343541248e-03    9    2    9    1
   7.616537316e-03    9    2    9    2
   5.487042516e-03    9    3    1    1
   1.119145783e-04    9    3    2    1
   7.314204391e-03    9    3    2    2
  -3.806226145e-04    9    3    3    1
  -1.924981050e-03    9    3    3    2
   6.731352356e-03    9    3    3    3
   2.475833615e-03    9    3    4    1
   5.683214295e-04    9    3    4    2
   4.748286524e-04    9    3    4    3
   6.648998672e-03    9    3    4    4
  -2.389663965e-03    9    3    5    1
   6.790543818e-05    9    3    5    2
   1.481673158e-03    9    3    5    3
   1.402391664e-03    9    3    5    4
   7.721554132e-03    9    3    5    5
   2.149340981e-04    9    3    6    1
   1.386986653e-03    9    3    6    2
   7.551315075e-04    9    3    6    3
   9.442994225e-04    9    3    6    4
  -1.551298116e-04    9    3    6    5
   5.040624922e-03    9    3    6    6
   4.650576399e-04    9    3    7    1
  -1.907887441e-03    9    3    7    2
  -6.246716377e-04    9    3    7    3
   1.965429029e-03    9    3    7    4