 &FCI NORB=   8,NELEC= 4,MS2=0,
  ORBSYM=1,1,1,1,1,1,1,1,
  ISYM=1,
 &END
 0.4692564341545917    1    1    1    1
 -1.091488011084607e-14    1    1    2    1
 0.4012329446456223    1    1    2    2
 -0.07894861391426927    1    1    3    1
 -3.093705847057038e-14    1    1    3    2
 0.4149074130627086    1    1    3    3
 4.626236459887023e-14    1    1    4    1
 -0.07618105913420882    1    1    4    2
 3.205161830388548e-14    1    1    4    3
 0.4782727115294423    1    1    4    4
 -3.930449715694451e-15    1    1    5    1
 -0.05265594868491116    1    1    5    2
 -2.132148624323094e-14    1    1    5    3
 -0.05176773192602697    1    1    5    4
 0.2919567246886522    1    1    5    5
 0.07538935414840467    1    1    6    1
 -1.637578961322106e-15    1    1    6    2
 -0.003708731969192317    1    1    6    3
 2.067790383364354e-15    1    1    6    4
 -3.226585665316861e-15    1    1    6    5
 0.3778299836709784    1    1    6    6
 0.02579642588402076    1    1    7    1
 -6.990068246448544e-15    1    1    7    2
 -0.07961705369055035    1    1    7    3
 4.202714565249011e-14    1    1    7    4
 0.06606024455620052    1    1    7    6
 0.3626251341958969    1    1    7    7
 7.366069559866517e-15    1    1    8    1
 -0.0455646335801644    1    1    8    2
 3.930016034825456e-14    1    1    8    3
 0.08578475747079076    1    1    8    4
 0.007551332834246541    1    1    8    5
 3.073929999430902e-15    1    1    8    6
 6.79664657887713e-15    1    1    8    7
 0.4063815786188576    1    1    8    8
 -1.089406342913435e-14    2    1    1    1
 0.1410891295443034    2    1    2    1
 7.233796894823286e-15    2    1    2    2
 -8.73086325459127e-15    2    1    3    1
 0.08369654701746185    2    1    3    2
 1.200602117723548e-13    2    1    3    3
 -0.03778048449225888    2    1    4    1
 -3.305428847300007e-14    2    1    4    2
 0.1367029562252517    2    1    4    3
 -1.290668960596264e-13    2    1    4    4
 -0.03215871919537713    2    1    5    1
 -3.628770461200359e-15    2    1    5    2
 -0.04714753515324227    2    1    5    3
 2.322220107181527e-14    2    1    5    4
 4.248771473536195e-15    2    1    5    5
 -1.491374298362436e-15    2    1    6    1
 0.04897267405218897    2    1    6    2
 -0.001787302383056823    2    1    6    4
 -0.08661179299595614    2    1    6    5
 -2.373969076874261e-15    2    1    6    6
 -6.895742657442305e-15    2    1    7    1
 -0.003052462646470749    2    1    7    2
 -2.799193168923075e-14    2    1    7    3
 -0.06166888393440225    2    1    7    4
 0.09593553353852791    2    1    7    5
 -7.96498283994751e-15    2    1    7    6
 -3.29770932783191e-15    2    1    7    7
 -0.0352740882480729    2    1    8    1
 -0.003592179425650046    2    1    8    3
 -1.049724543400465e-15    2    1    8    4
 -0.09707381391420773    2    1    8    6
 -0.0340086908693661    2    1    8    7
 -4.294307964780586e-15    2    1    8    8
 0.4012329446456224    2    2    1    1
 7.230327447871332e-15    2    2    2    1
 0.4025487715784165    2    2    2    2
 0.003587722762450948    2    2    3    1
 6.203371150093062e-15    2    2    3    2
 0.4020227832905022    2    2    3    3
 2.770353391134961e-15    2    2    4    1
 -0.006788295176267349    2    2    4    2
 1.515454428613339e-14    2    2    4    3
 0.4179862960361616    2    2    4    4
 -5.777496536740756e-15    2    2    5    1
 -0.06669236502523664    2    2    5    2
 -2.642330798607873e-14    2    2    5    3
 -0.05525588585751981    2    2    5    4
 0.3275079437345352    2    2    5    5
 0.06429884366923444    2    2    6    1
 3.753941602013811e-15    2    2    6    2
 0.03311118699688036    2    2    6    3
 -1.577904473748504e-14    2    2    6    4
 -8.042178034628478e-15    2    2    6    5
 0.3572420629279965    2    2    6    6
 0.001502158347256698    2    2    7    1
 -6.025561993805439e-15    2    2    7    2
 -0.07026520757635767    2    2    7    3
 3.127012537795792e-14    2    2    7    4
 8.094219738907782e-15    2    2    7    5
 0.003909751297678088    2    2    7    6
 0.3333470909848001    2    2    7    7
 1.107620939411191e-15    2    2    8    1
 -0.04005725945953963    2    2    8    2
 1.305379415672547e-14    2    2    8    3
 0.02765065997849686    2    2    8    4
 0.02427905844404038    2    2    8    5
 -3.785166624581393e-15    2    2    8    6
 1.491862189340054e-15    2    2    8    7
 0.3546404600922894    2    2    8    8
 -0.07894861391426927    3    1    1    1
 -8.713732860265999e-15    3    1    2    1
 0.003587722762450952    3    1    2    2
 0.09985810438626394    3    1    3    1
 6.30225038822374e-14    3    1    3    2
 -0.009825036500358535    3    1    3    3
 -6.245871875254494e-15    3    1    4    1
 0.08734513206826774    3    1    4    2
 -5.02098362886727e-14    3    1    4    3
 -0.07190315837170785    3    1    4    4
 -3.846830623141506e-15    3    1    5    1
 -0.02041823338033242    3    1    5    2
 -4.925096788732652e-15    3    1    5    3
 -0.007019649411303481    3    1    5    4
 0.04616982726732943    3    1    5    5
 -0.01315384412499917    3    1    6    1
 -2.762113454624071e-15    3    1    6    2
 0.04892826210703791    3    1    6    3
 2.633743917401787e-15    3    1    6    4
 -1.104064756285439e-14    3    1    6    5
 -0.02183026672125358    3    1    6    6
 -0.03336026776083446    3    1    7    1
 -1.200884010288394e-14    3    1    7    2
 0.01014257687683771    3    1    7    3
 1.378346221880822e-14    3    1    7    4
 7.941997753890817e-15    3    1    7    5
 -0.07645757405598551    3    1    7    6
 -0.03283498199532387    3    1    7    7
 1.074997296041103e-14    3    1    8    1
 0.006278651610550967    3    1    8    2
 -5.644746822741631e-14    3    1    8    3
 -0.07398963905446913    3    1    8    4
 0.0220991801141155    3    1    8    5
 2.132278728583792e-14    3    1    8    6
 2.232936058277346e-14    3    1    8    7
 -0.06257667614776861    3    1    8    8
 -3.091537442712067e-14    3    2    1    1
 0.08369654701746185    3    2    2    1
 6.199901703141109e-15    3    2    2    2
 6.302423860571338e-14    3    2    3    1
 0.113887470401808    3    2    3    2
 7.351758091189708e-14    3    2    3    3
 0.04725462991291626    3    2    4    1
 -1.171632235674736e-14    3    2    4    2
 0.08914421461753133    3    2    4    3
 -1.195397947295618e-13    3    2    4    4
 -0.03294463987263056    3    2    5    1
 -9.007768489444068e-15    3    2    5    2
 -0.0417795851365819    3    2    5    3
 1.748449475480474e-14    3    2    5    4
 2.187182726598458e-14    3    2    5    5
 -4.232305153041571e-15    3    2    6    1
 0.0322107334948519    3    2    6    2
 4.075212389764715e-14    3    2    6    3
 0.04429076353018543    3    2    6    4
 -0.0952683560453927    3    2    6    5
 -1.164758393901177e-14    3    2    6    6
 -1.623365070840821e-14    3    2    7    1
 -0.02523629493416985    3    2    7    2
 -2.45181479285872e-15    3    2    7    3
 -0.015115338155617    3    2    7    4
 0.09316289727981614    3    2    7    5
 -3.454181385365018e-14    3    2    7    6
 -1.146305272925474e-14    3    2    7    7
 -0.005038671161164744    3    2    8    1
 -0.04481438977288094    3    2    8    3
 -1.229745472119959e-14    3    2    8    4
 5.990000162547915e-15    3    2    8    5
 -0.04348599078113174    3    2    8    6
 0.01606544765167804    3    2    8    7
 -3.031038961487376e-14    3    2    8    8
 0.4149074130627086    3    3    1    1
 1.200844979010185e-13    3    3    2    1
 0.4020227832905021    3    3    2    2
 -0.009825036500358514    3    3    3    1
 7.351758091189708e-14    3    3    3    2
 0.4267560676161046    3    3    3    3
 -2.79134354519428e-14    3    3    4    1
 -0.003178570638992354    3    3    4    2
 1.397354454368838e-13    3    3    4    3
 0.4391495524198065    3    3    4    4
 -2.895470321839788e-14    3    3    5    1
 -0.06563283715368506    3    3    5    2
 -7.008109370598703e-14    3    3    5    3
 -0.06180367422823687    3    3    5    4
 0.3365624822808297    3    3    5    5
 0.07396049819892052    3    3    6    1
 5.069555886194621e-14    3    3    6    2
 0.03169400304144162    3    3    6    3
 -2.422714806549209e-14    3    3    6    4
 -7.834011217511261e-14    3    3    6    5
 0.3664754737223169    3    3    6    6
 0.006128660799357471    3    3    7    1
 -4.424412225478846e-15    3    3    7    2
 -0.07842999202359997    3    3    7    3
 -2.64701455199301e-14    3    3    7    4
 9.064277106674012e-14    3    3    7    5
 0.00674026576211381    3    3    7    6
 0.3479433986260764    3    3    7    7
 -4.231120662168131e-14    3    3    8    1
 -0.05330855349679938    3    3    8    2
 1.799949078673535e-14    3    3    8    3
 0.0354826827247985    3    3    8    4
 0.02321550912142849    3    3    8    5
 -8.760093345161479e-14    3    3    8    6
 -3.403874404561691e-14    3    3    8    7
 0.3628771585222275    3    3    8    8
 4.623233219869238e-14    4    1    1    1
 -0.03778048449225888    4    1    2    1
 2.726117942497552e-15    4    1    2    2
 -6.225055193542772e-15    4    1    3    1
 0.04725462991291626    4    1    3    2
 -2.794292575103441e-14    4    1    3    3
 0.08710398588143971    4    1    4    1
 -6.167982791183135e-14    4    1    4    2
 -0.03260647957223761    4    1    4    3
 5.731526364627371e-14    4    1    4    4
 -0.00813947838368868    4    1    5    1
 9.444701964955726e-15    4    1    5    2
 -0.002845246048252102    4    1    5    3
 3.816174806714479e-15    4    1    5    4
 -2.004126031796005e-14    4    1    5    5
 9.496852089452279e-15    4    1    6    1
 -0.01122747845058601    4    1    6    2
 2.394243657499739e-15    4    1    6    3
 0.05271783685824731    4    1    6    4
 -0.02379516735217497    4    1    6    5
 1.020017403874363e-14    4    1    6    6
 1.911665270526441e-14    4    1    7    1
 -0.02697270643552633    4    1    7    2
 1.410069977447748e-14    4    1    7    3
 0.04276382229649554    4    1    7    4
 0.01118153992753111    4    1    7    5
 3.624314390271444e-14    4    1    7    6
 1.900996721149184e-14    4    1    7    7
 0.03135858707440253    4    1    8    1
 -5.060256142060127e-15    4    1    8    2
 -0.04679287405853799    4    1    8    3
 5.438665739553733e-14    4    1    8    4
 -1.119099929912382e-14    4    1    8    5
 0.04255398340624411    4    1    8    6
 0.05101219370627682    4    1    8    7
 2.737157831118886e-14    4    1    8    8
 -0.07618105913420885    4    2    1    1
 -3.307814092079475e-14    4    2    2    1
 -0.006788295176267349    4    2    2    2
 0.08734513206826777    4    2    3    1
 -1.167642371679989e-14    4    2    3    2
 -0.003178570638992361    4    2    3    3
 -6.166941957097549e-14    4    2    4    1
 0.08877095248275627    4    2    4    2
 -8.15042477952943e-14    4    2    4    3
 -0.0712899631587377    4    2    4    4
 1.577179413545654e-14    4    2    5    1
 -0.01549961693251076    4    2    5    2
 1.649694920599631e-14    4    2    5    3
 -0.006828772973982626    4    2    5    4
 0.04355730292993124    4    2    5    5
 -0.01383256066816502    4    2    6    1
 -1.358353533820189e-14    4    2    6    2
 0.04592801698355365    4    2    6    3
 -4.057604946483551e-14    4    2    6    4
 4.577761780755196e-14    4    2    6    5
 -0.0230579054107347    4    2    6    6
 -0.03303899598407065    4    2    7    1
 1.212972864511608e-14    4    2    7    2
 0.01148325384095282    4    2    7    3
 1.773754754186285e-15    4    2    7    4
 -4.225612915131904e-14    4    2    7    5
 -0.07234836116759387    4    2    7    6
 -0.02951175964217859    4    2    7    7
 0.003795356403338065    4    2    8    2
 -1.335953916936639e-14    4    2    8    3
 -0.07251401236370469    4    2    8    4
 0.01978358527506686    4    2    8    5
 2.338754190311931e-14    4    2    8    6
 -8.246875404793741e-15    4    2    8    7
 -0.06420690115498777    4    2    8    8
 3.20576898360514e-14    4    3    1    1
 0.1367029562252517    4    3    2    1
 1.518229986174902e-14    4    3    2    2
 -5.024279603471626e-14    4    3    3    1
 0.08914421461753132    4    3    3    2
 1.397354454368838e-13    4    3    3    3
 -0.03260647957223764    4    3    4    1
 -8.153634017959988e-14    4    3    4    2
 0.1510826923022063    4    3    4    3
 -9.65980767597685e-14    4    3    4    4
 -0.02999762594252591    4    3    5    1
 3.042108665668453e-15    4    3    5    2
 -0.05085641175257671    4    3    5    3
 2.661532019082591e-14    4    3    5    4
 -1.375071931319916e-14    4    3    5    5
 1.036865905634787e-14    4    3    6    1
 0.05603408782004626    4    3    6    2
 -2.351938088729355e-14    4    3    6    3
 -0.002114478552947405    4    3    6    4
 -0.09219413349470533    4    3    6    5
 1.31114737123017e-14    4    3    6    6
 1.26777928433075e-14    4    3    7    1
 -0.001758717997644807    4    3    7    2
 -4.153448418531269e-14    4    3    7    3
 -0.069060371835816    4    3    7    4
 0.1052962346204941    4    3    7    5
 2.95145852202694e-14    4    3    7    6
 1.619711309519545e-14    4    3    7    7
 -0.04825918462073808    4    3    8    1
 -6.48699843841527e-15    4    3    8    2
 -0.006511649866754865    4    3    8    3
 4.238276396506535e-14    4    3    8    4
 -1.142835825973521e-14    4    3    8    5
 -0.09767407564700625    4    3    8    6
 -0.03562109849248044    4    3    8    7
 3.45105888310826e-14    4    3    8    8
 0.4782727115294426    4    4    1    1
 -1.289870987797315e-13    4    4    2    1
 0.4179862960361616    4    4    2    2
 -0.0719031583717079    4    4    3    1
 -1.19671633713736e-13    4    4    3    2
 0.4391495524198067    4    4    3    3
 5.722158857857096e-14    4    4    4    1
 -0.07128996315873783    4    4    4    2
 -9.661021982410034e-14    4    4    4    3
 0.5123893279474098    4    4    4    4
 2.437633428442609e-14    4    4    5    1
 -0.0569253958523218    4    4    5    2
 2.20275186979535e-14    4    4    5    3
 -0.06141399286171524    4    4    5    4
 0.3135252510499931    4    4    5    5
 0.09422390113778342    4    4    6    1
 -5.08308672930724e-14    4    4    6    2
 -0.002744569807396558    4    4    6    3
 -7.591149930874508e-15    4    4    6    4
 8.651412919391532e-14    4    4    6    5
 0.3922772644137789    4    4    6    6
 0.03757802098792064    4    4    7    1
 -1.43982048506075e-15    4    4    7    2
 -0.09576796775099661    4    4    7    3
 1.047217867977679e-13    4    4    7    4
 -9.960782199058826e-14    4    4    7    5
 0.06012800146850136    4    4    7    6
 0.3787749495012864    4    4    7    7
 4.659770833082e-14    4    4    8    1
 -0.06621171992694008    4    4    8    2
 6.089920234764179e-14    4    4    8    3
 0.09839319673555942    4    4    8    4
 0.008783322918197636    4    4    8    5
 8.534666029458293e-14    4    4    8    6
 2.926825448668069e-14    4    4    8    7
 0.4215886688030152    4    4    8    8
 -3.936087566991375e-15    5    1    1    1
 -0.03215871919537713    5    1    2    1
 -5.841681305351898e-15    5    1    2    2
 -3.788636071533347e-15    5    1    3    1
 -0.03294463987263054    5    1    3    2
 -2.897682094271659e-14    5    1    3    3
 -0.008139478383688625    5    1    4    1
 1.572570199059875e-14    5    1    4    2
 -0.02999762594252593    5    1    4    3
 2.458146533546035e-14    5    1    4    4
 0.02171192409986757    5    1    5    1
 2.998903209094905e-15    5    1    5    2
 0.03166638324945434    5    1    5    3
 -1.405299487888811e-14    5    1    5    4
 -2.425143419415576e-15    5    1    5    5
 -2.472197793701447e-15    5    1    6    1
 -0.02381708537170145    5    1    6    2
 -8.534839501805891e-15    5    1    6    3
 -0.01898025859194764    5    1    6    4
 0.0286541676440881    5    1    6    5
 -2.483256655860799e-15    5    1    6    6
 0.01791535871034262    5    1    7    2
 9.995910349447357e-15    5    1    7    3
 0.01759139132494149    5    1    7    4
 -0.02223159960715902    5    1    7    5
 -2.92300905702092e-15    5    1    7    7
 0.005854461859573009    5    1    8    1
 1.244880934447856e-15    5    1    8    2
 0.01336548825953027    5    1    8    3
 -7.968235446464966e-15    5    1    8    4
 0.01896590968897838    5    1    8    6
 -0.007788815189650918    5    1    8    7
 -2.383076375123139e-15    5    1    8    8
 -0.05265594868491118    5    2    1    1
 -3.694961003830599e-15    5    2    2    1
 -0.06669236502523654    5    2    2    2
 -0.02041823338033238    5    2    3    1
 -8.98066343513193e-15    5    2    3    2
 -0.06563283715368512    5    2    3    3
 9.400683356752815e-15    5    2    4    1
 -0.01549961693251079    5    2    4    2
 3.151558874980864e-15    5    2    4    3
 -0.05692539585232151    5    2    4    4
 2.989795910846027e-15    5    2    5    1
 0.04456435358141343    5    2    5    2
 1.673661209622423e-14    5    2    5    3
 0.03486802186293601    5    2    5    4
 -0.04794128320480637    5    2    5    5
 -0.02698763674801613    5    2    6    1
 -2.99109695345301e-15    5    2    6    2
 -0.03525798822120988    5    2    6    3
 1.720498743473797e-14    5    2    6    4
 1.530026105811544e-15    5    2    6    5
 -0.05153413865289993    5    2    6    6
 0.0156792439692134    5    2    7    1
 2.893952438798308e-15    5    2    7    2
 0.03502477080011399    5    2    7    3
 -1.480239542051009e-14    5    2    7    4
 -1.783295733304158e-15    5    2    7    5
 0.01448816137598236    5    2    7    6
 -0.03527358058729872    5    2    7    7
 0.01553828313669291    5    2    8    2
 2.404977259007346e-15    5    2    8    3
 0.007632088227723038    5    2    8    4
 -0.02094809153691031    5    2    8    5
 -0.03577277498186307    5    2    8    8
 -2.131541471106502e-14    5    3    1    1
 -0.04714753515324234    5    3    2    1
 -2.632963291837598e-14    5    3    2    2
 -4.953502885651773e-15    5    3    3    1
 -0.0417795851365819    5    3    3    2
 -6.996139778614463e-14    5    3    3    3
 -0.002845246048252089    5    3    4    1
 1.656660919557851e-14    5    3    4    2
 -0.05085641175257681    5    3    4    3
 2.16684309384263e-14    5    3    4    4
 0.03166638324945444    5    3    5    1
 1.676263294836389e-14    5    3    5    2
 0.05242535195275227    5    3    5    3
 -1.278491201794907e-14    5    3    5    4
 -1.722233466949774e-14    5    3    5    5
 -1.227446963514289e-14    5    3    6    1
 -0.04118448544105224    5    3    6    2
 -1.831260837414916e-14    5    3    6    3
 -0.02195316895468768    5    3    6    4
 0.03792097663380151    5    3    6    5
 -2.002911725362821e-14    5    3    6    6
 5.157983415382539e-15    5    3    7    1
 0.02486568434392902    5    3    7    2
 3.181135910246269e-14    5    3    7    3
 0.03797985049006025    5    3    7    4
 -0.02933365282426642    5    3    7    5
 3.342812138207307e-15    5    3    7    6
 -1.583629061219227e-14    5    3    7    7
 0.01817664671052049    5    3    8    1
 7.346120239892784e-15    5    3    8    2
 0.01266279789424059    5    3    8    3
 -9.230463615672591e-15    5    3    8    4
 -5.521624824034177e-15    5    3    8    5
 0.03419321888287084    5    3    8    6
 -0.006219586018466246    5    3    8    7
 -1.693090112553364e-14    5    3    8    8
 -0.05176773192602689    5    4    1    1
 2.338407245616736e-14    5    4    2    1
 -0.05525588585751995    5    4    2    2
 -0.007019649411303593    5    4    3    1
 1.738626603797755e-14    5    4    3    2
 -0.06180367422823654    5    4    3    3
 3.823981062356374e-15    5    4    4    1
 -0.00682877297398249    5    4    4    2
 2.642287430520973e-14    5    4    4    3
 -0.06141399286171555    5    4    4    4
 -1.413712896747299e-14    5    4    5    1
 0.03486802186293599    5    4    5    2
 -1.226276025168005e-14    5    4    5    3
 0.03216207754313764    5    4    5    4
 -0.03858425420141636    5    4    5    5
 -0.02773591134842631    5    4    6    1
 1.978799069046744e-14    5    4    6    2
 -0.02390132732208143    5    4    6    3
 2.341443011699695e-14    5    4    6    4
 -1.862052179113505e-14    5    4    6    5
 -0.04867592413580566    5    4    6    6
 0.006562312670022321    5    4    7    1
 -1.027433346734163e-14    5    4    7    2
 0.03507341332495821    5    4    7    3
 -3.5377950569071e-14    5    4    7    4
 1.456820775125323e-14    5    4    7    5
 0.005412899482315294    5    4    7    6
 -0.03618383218326412    5    4    7    7
 -9.709952026454305e-15    5    4    8    1
 0.01810311358194675    5    4    8    2
 -1.041636395193724e-14    5    4    8    3
 -0.004921750618502374    5    4    8    4
 -0.01642949781094043    5    4    8    5
 -1.7165739316094e-14    5    4    8    6
 2.016182359954044e-15    5    4    8    7
 -0.04026507351993432    5    4    8    8
 0.2919567246886523    5    5    1    1
 4.454769886308441e-15    5    5    2    1
 0.3275079437345346    5    5    2    2
 0.04616982726732928    5    5    3    1
 2.167016566190227e-14    5    5    3    2
 0.3365624822808297    5    5    3    3
 -1.988513520512214e-14    5    5    4    1
 0.04355730292993169    5    5    4    2
 -1.417962969263442e-14    5    5    4    3
 0.3135252510499917    5    5    4    4
 -2.125036258071589e-15    5    5    5    1
 -0.04794128320480602    5    5    5    2
 -1.662558979376172e-14    5    5    5    3
 -0.03858425420141849    5    5    5    4
 0.3261189515032049    5    5    5    5
 0.04140118924216445    5    5    6    1
 1.547373340571312e-15    5    5    6    2
 0.04280983742397483    5    5    6    3
 -2.158689893505539e-14    5    5    6    4
 0.2952886579206027    5    5    6    6
 -0.01004725456965847    5    5    7    1
 -2.930815312662816e-15    5    5    7    2
 -0.04143350233699469    5    5    7    3
 1.918257219735153e-14    5    5    7    4
 1.484923295436147e-15    5    5    7    5
 -0.04355468151338945    5    5    7    6
 0.2827985280170445    5    5    7    7
 -0.03423646705755574    5    5    8    2
 -4.921410501346202e-15    5    5    8    3
 -0.01566036701932255    5    5    8    4
 0.02351516156900382    5    5    8    5
 1.576863639662918e-15    5    5    8    6
 -1.229918944467556e-15    5    5    8    7
 0.2675721456579895    5    5    8    8
 0.07538935414840468    6    1    1    1
 -1.481453848484193e-15    6    1    2    1
 0.06429884366923447    6    1    2    2
 -0.01315384412499916    6    1    3    1
 -4.24313362223927e-15    6    1    3    2
 0.0739604981989205    6    1    3    3
 9.490585739708492e-15    6    1    4    1
 -0.01383256066816503    6    1    4    2
 1.034953432294829e-14    6    1    4    3
 0.09422390113778339    6    1    4    4
 -2.457669484590141e-15    6    1    5    1
 -0.02698763674801611    6    1    5    2
 -1.233214919071912e-14    6    1    5    3
 -0.02773591134842642    6    1    5    4
 0.0414011892421645    6    1    5    5
 0.04488598177513212    6    1    6    1
 0.003998774334749213    6    1    6    3
 -2.416469802035692e-15    6    1    6    4
 -1.287164819174791e-15    6    1    6    5
 0.05413249836403637    6    1    6    6
 0.01591585669389756    6    1    7    1
 -3.817435191739993e-15    6    1    7    2
 -0.04272766721457728    6    1    7    3
 2.07633389648354e-14    6    1    7    4
 0.006531161241019838    6    1    7    6
 0.0485031309663234    6    1    7    7
 2.622468214807938e-15    6    1    8    1
 -0.03347161668964906    6    1    8    2
 1.682421563176106e-14    6    1    8    3
 0.03456667997233887    6    1    8    4
 0.006919203221859929    6    1    8    5
 1.892583312290697e-15    6    1    8    7
 0.05605894415888654    6    1    8    8
 -1.636277918715123e-15    6    2    1    1
 0.04897267405218894    6    2    2    1
 3.805983306293115e-15    6    2    2    2
 -2.766016582445019e-15    6    2    3    1
 0.0322107334948519    6    2    3    2
 5.069035469151828e-14    6    2    3    3
 -0.01122747845058601    6    2    4    1
 -1.359828048774769e-14    6    2    4    2
 0.05603408782004625    6    2    4    3
 -5.087857218866176e-14    6    2    4    4
 -0.02381708537170143    6    2    5    1
 -3.04790914729125e-15    6    2    5    2
 -0.04118448544105216    6    2    5    3
 1.976890873223169e-14    6    2    5    4
 1.64104840827406e-15    6    2    5    5
 0.0417277564638316    6    2    6    2
 1.478851763270228e-15    6    2    6    3
 0.004132315404174214    6    2    6    4
 -0.03324829050678659    6    2    6    5
 -3.801538077385924e-15    6    2    7    1
 -0.0113195184892964    6    2    7    2
 -1.974028579487808e-14    6    2    7    3
 -0.0419403719410565    6    2    7    4
 0.03123780170202474    6    2    7    5
 -1.945058697438995e-15    6    2    7    6
 -0.02972137315948586    6    2    8    1
 -0.003737921650428144    6    2    8    3
 2.856222203195813e-15    6    2    8    4
 -0.03383566451479906    6    2    8    6
 -0.006324806226889993    6    2    8    7
 -0.003708731969192329    6    3    1    1
 0.03311118699688035    6    3    2    2
 0.04892826210703792    6    3    3    1
 4.076426696197899e-14    6    3    3    2
 0.03169400304144164    6    3    3    3
 2.39044894989604e-15    6    3    4    1
 0.04592801698355366    6    3    4    2
 -2.353672812205332e-14    6    3    4    3
 -0.002744569807396532    6    3    4    4
 -8.544380480923763e-15    6    3    5    1
 -0.03525798822120989    6    3    5    2
 -1.834123131150278e-14    6    3    5    3
 -0.02390132732208121    6    3    5    4
 0.04280983742397505    6    3    5    5
 0.003998774334749211    6    3    6    1
 1.461938209379454e-15    6    3    6    2
 0.04635555637649984    6    3    6    3
 -1.204071564675502e-14    6    3    6    5
 0.02006195315051558    6    3    6    6
 -0.03098581955027696    6    3    7    1
 -1.425205439775645e-14    6    3    7    2
 -0.01219900633446666    6    3    7    3
 1.589266912516152e-14    6    3    7    4
 7.605027718682322e-15    6    3    7    5
 -0.03761836783629484    6    3    7    6
 0.006960127442792346    6    3    7    7
 1.002773168320981e-14    6    3    8    1
 -0.003054165982881924    6    3    8    2
 -3.649316092368959e-14    6    3    8    3
 -0.0426679115365416    6    3    8    4
 0.02241246383094491    6    3    8    5
 7.877162463976184e-15    6    3    8    6
 1.668457039194493e-14    6    3    8    7
 -0.008728392742425796    6    3    8    8
 2.180222148651101e-15    6    4    1    1
 -0.001787302383056782    6    4    2    1
 -1.580506558962469e-14    6    4    2    2
 2.635912321746758e-15    6    4    3    1
 0.04429076353018541    6    4    3    2
 -2.438500790180598e-14    6    4    3    3
 0.0527178368582473    6    4    4    1
 -4.059079461438131e-14    6    4    4    2
 -0.00211447855294743    6    4    4    3
 -7.525230438787389e-15    6    4    4    4
 -0.01898025859194766    6    4    5    1
 1.720108430691702e-14    6    4    5    2
 -0.02195316895468769    6    4    5    3
 2.355147327159912e-14    6    4    5    4
 -2.122781117552819e-14    6    4    5    5
 -2.433166515491969e-15    6    4    6    1
 0.004132315404174225    6    4    6    2
 0.04777823221623487    6    4    6    4
 -0.0296401459649381    6    4    6    5
 -1.331009955030105e-14    6    4    6    6
 1.48615928591278e-14    6    4    7    1
 -0.03029071354377806    6    4    7    2
 1.633589097327359e-14    6    4    7    3
 0.01732311503874977    6    4    7    4
 0.01707236598380973    6    4    7    5
 1.685804273954261e-14    6    4    7    6
 -4.255276686571108e-15    6    4    7    7
 0.02132809158969221    6    4    8    1
 2.814371999337872e-15    6    4    8    2
 -0.03740918854378857    6    4    8    3
 3.327156258836617e-14    6    4    8    4
 -1.258715354168771e-14    6    4    8    5
 0.01082553150918688    6    4    8    6
 0.03590289433224551    6    4    8    7
 -2.945560462208618e-15    6    5    1    1
 -0.08661179299595606    6    5    2    1
 -8.250344851745695e-15    6    5    2    2
 -1.097386070902928e-14    6    5    3    1
 -0.09526835604539272    6    5    3    2
 -7.867664852945211e-14    6    5    3    3
 -0.02379516735217504    6    5    4    1
 4.567526912246933e-14    6    5    4    2
 -0.09219413349470515    6    5    4    3
 8.6538415322579e-14    6    5    4    4
 0.02865416764408808    6    5    5    1
 1.491862189340054e-15    6    5    5    2
 0.03792097663380167    6    5    5    3
 -1.917259753736467e-14    6    5    5    4
 -1.311207002349657e-15    6    5    6    1
 -0.03324829050678655    6    5    6    2
 -1.204808822152792e-14    6    5    6    3
 -0.02964014596493829    6    5    6    4
 0.09203692013508363    6    5    6    5
 1.376069397318602e-15    6    5    7    1
 0.01663168919289115    6    5    7    2
 1.159792747951194e-14    6    5    7    3
 0.02403087016696706    6    5    7    4
 -0.09439800412329134    6    5    7    5
 -1.647987302177967e-15    6    5    7    7
 0.01345382866241604    6    5    8    1
 0.03263173677594384    6    5    8    3
 -1.708919464271652e-14    6    5    8    4
 2.676678323432213e-15    6    5    8    5
 0.05175016584713076    6    5    8    6
 -0.003466154310667171    6    5    8    7
 0.3778299836709784    6    6    1    1
 -2.421673972463623e-15    6    6    2    1
 0.3572420629279967    6    6    2    2
 -0.02183026672125363    6    6    3    1
 -1.168856678113173e-14    6    6    3    2
 0.3664754737223168    6    6    3    3
 1.023313378478719e-14    6    6    4    1
 -0.02305790541073484    6    6    4    2
 1.30746108384372e-14    6    6    4    3
 0.3922772644137786    6    6    4    4
 -2.411265631607762e-15    6    6    5    1
 -0.05153413865289995    6    6    5    2
 -2.003258670058017e-14    6    6    5    3
 -0.04867592413580613    6    6    5    4
 0.295288657920601    6    6    5    5
 0.05413249836403641    6    6    6    1
 0.02006195315051552    6    6    6    3
 -1.332961518940579e-14    6    6    6    4