 &FCI NORB=12 ,NELEC=8 ,MS2=0,
  ORBSYM=1,1,2,1,3,1,2,2,3,1,1,2,
  ISYM=1,
 &END
  7.562218645324e-01    1  1  1  1
  1.487858329762e-01    2  1  2  1
  6.734821902972e-01    2  2  1  1
  6.557847207451e-01    2  2  2  2
 -2.191970782027e-02    3  1  1  1
 -9.205406973545e-03    3  1  2  2
  1.158470737979e-01    3  1  3  1
 -1.246061435792e-02    3  2  2  1
  4.173396678312e-02    3  2  3  2
  6.693414350497e-01    3  3  1  1
  6.027006968248e-01    3  3  2  2
  8.230019439033e-02    3  3  3  1
  7.405396230104e-01    3  3  3  3
  1.295115928771e-01    4  1  4  1
  2.834685480569e-02    4  2  4  2
  3.613986680833e-02    4  3  4  1
  4.593486116808e-02    4  3  4  3
  7.117670746775e-01    4  4  1  1
  6.167800615739e-01    4  4  2  2
  4.348058766504e-02    4  4  3  1
  6.679697413897e-01    4  4  3  3
  7.640196778248e-01    4  4  4  4
 -1.420127662377e-01    5  1  1  1
 -7.913409795815e-02    5  1  2  2
  2.384149381659e-02    5  1  3  1
 -8.410531651682e-02    5  1  3  3
 -1.335029409546e-01    5  1  4  4
  1.107006648594e-01    5  1  5  1
  3.414088894330e-02    5  2  2  1
 -1.986028747263e-02    5  2  3  2
  6.502082078221e-02    5  2  5  2
  1.257474863291e-01    5  3  1  1
  7.723932795857e-02    5  3  2  2
  2.868953416353e-02    5  3  3  1
  1.435114827602e-01    5  3  3  3
  1.314498636411e-01    5  3  4  4
 -7.795238468894e-02    5  3  5  1
  9.305146841426e-02    5  3  5  3
 -3.997623496725e-02    5  4  4  1
  2.501815207066e-03    5  4  4  3
  2.920112823243e-02    5  4  5  4
  6.882451180241e-01    5  5  1  1
  6.231699199361e-01    5  5  2  2
 -7.045999712802e-02    5  5  3  1
  5.948097962041e-01    5  5  3  3
  6.150723202146e-01    5  5  4  4
 -1.213400379465e-01    5  5  5  1
  9.823860204669e-02    5  5  5  3
  7.052072261306e-01    5  5  5  5
  3.655199024719e-02    6  1  2  1
  3.106614071132e-02    6  1  3  2
 -4.005744582967e-02    6  1  5  2
  6.344372834352e-02    6  1  6  1
  1.618167630630e-01    6  2  1  1
  1.234454587649e-01    6  2  2  2
  6.444830096595e-02    6  2  3  1
  1.720521395302e-01    6  2  3  3
  1.854677723943e-01    6  2  4  4
 -9.242310967217e-02    6  2  5  1
  1.018903297967e-01    6  2  5  3
  8.970822312700e-02    6  2  5  5
  1.754631832492e-01    6  2  6  2
  6.489590586258e-02    6  3  2  1
  6.351920028873e-03    6  3  3  2
  3.866105987712e-02    6  3  5  2
  8.421117446639e-03    6  3  6  1
  5.324466697353e-02    6  3  6  3
  1.856717759986e-02    6  4  4  2
  2.033299447127e-02    6  4  6  4
 -1.009095187305e-01    6  5  2  1
  4.164161381514e-02    6  5  3  2
 -5.253718081053e-02    6  5  5  2
  1.047377702448e-02    6  5  6  1
 -4.492782482038e-02    6  5  6  3
  1.142469746057e-01    6  5  6  5
  6.714178702934e-01    6  6  1  1
  6.530139416860e-01    6  6  2  2
  2.556449248635e-03    6  6  3  1
  6.205161871868e-01    6  6  3  3
  6.262249220633e-01    6  6  4  4
 -8.225021152377e-02    6  6  5  1
  8.641475645701e-02    6  6  5  3
  6.434741938928e-01    6  6  5  5
  1.408434801580e-01    6  6  6  2
  6.873937172124e-01    6  6  6  6
 -2.588679433557e-02    7  1  2  1
  1.598651653103e-02    7  1  3  2
 -2.011685367543e-02    7  1  5  2
  1.252184753370e-02    7  1  6  1
 -1.150497353817e-02    7  1  6  3
  2.693618021041e-02    7  1  6  5
  1.460924432829e-02    7  1  7  1
 -4.652575066297e-02    7  2  1  1
 -5.318824059083e-02    7  2  2  2
  2.652781416513e-02    7  2  3  1
 -2.350997422612e-02    7  2  3  3
 -2.031696920988e-02    7  2  4  4
 -1.003488543628e-02    7  2  5  1
  1.444954552559e-02    7  2  5  3
 -5.268190614360e-02    7  2  5  5
  2.855935362224e-02    7  2  6  2
 -4.016148546289e-02    7  2  6  6
  3.084426928826e-02    7  2  7  2
  2.543225072163e-02    7  3  2  1
 -6.542913382418e-03    7  3  3  2
  1.293164676003e-02    7  3  5  2
 -1.187538683063e-03    7  3  6  1
  1.431421073328e-02    7  3  6  3
 -1.948530616182e-02    7  3  6  5
 -1.021739673534e-02    7  3  7  1
  1.007785417083e-02    7  3  7  3
  2.019689068708e-03    7  4  4  2
  2.660881153669e-03    7  4  6  4
  1.319023730703e-03    7  4  7  4
 -2.944389768108e-02    7  5  2  1
  1.409077688644e-02    7  5  3  2
 -1.778139517628e-02    7  5  5  2
  6.964105224754e-03    7  5  6  1
 -1.330881618786e-02    7  5  6  3
  3.064662169633e-02    7  5  6  5
  1.588235977729e-02    7  5  7  1
 -1.414463145518e-02    7  5  7  3
  2.532709771691e-02    7  5  7  5
  1.063647938404e-01    7  6  1  1
  1.042183418801e-01    7  6  2  2
 -7.168125135609e-03    7  6  3  1
  9.066490439958e-02    7  6  3  3
  8.869627150523e-02    7  6  4  4
 -1.421394319532e-02    7  6  5  1
  1.556041730447e-02    7  6  5  3
  1.028577511022e-01    7  6  5  5
  2.233448393638e-02    7  6  6  2
  1.094948244543e-01    7  6  6  6
 -2.507756979073e-02    7  6  7  2
  4.207530756326e-02    7  6  7  6
  3.567563863266e-01    7  7  1  1
  3.679427508254e-01    7  7  2  2
 -3.688681727291e-02    7  7  3  1
  3.201593864441e-01    7  7  3  3
  3.190246312355e-01    7  7  4  4
  6.339646199870e-03    7  7  5  1
 -1.228647016982e-02    7  7  5  3
  3.802783057835e-01    7  7  5  5
 -2.434464139665e-02    7  7  6  2
  3.730179737182e-01    7  7  6  6
 -2.813247166791e-02    7  7  7  2
  2.936797485537e-02    7  7  7  6
  3.346258156279e-01    7  7  7  7
 -3.976906654733e-02    8  1  4  1
 -1.304268549890e-02    8  1  4  3
  2.463652444602e-02    8  1  5  4
  3.755811669651e-02    8  1  8  1
 -6.294071144582e-03    8  2  4  2
 -1.330618403798e-02    8  2  6  4
 -1.545790878786e-03    8  2  7  4
  1.296280414555e-02    8  2  8  2
 -1.581491654390e-02    8  3  4  1
 -1.429972344843e-02    8  3  4  3
 -4.356865688521e-03    8  3  5  4
  9.602439593037e-03    8  3  8  1
  1.884165359152e-02    8  3  8  3
 -1.890528469267e-01    8  4  1  1
 -1.433624279815e-01    8  4  2  2
 -2.291663356411e-02    8  4  3  1
 -1.723203171949e-01    8  4  3  3
 -2.069460251153e-01    8  4  4  4
  8.321709345464e-02    8  4  5  1
 -8.169631768905e-02    8  4  5  3
 -1.636425346987e-01    8  4  5  5
 -1.130011891654e-01    8  4  6  2
 -1.714589585425e-01    8  4  6  6
 -4.557064869407e-03    8  4  7  2
 -3.864640304755e-02    8  4  7  6
 -2.348076146524e-02    8  4  7  7
  1.590317591779e-01    8  4  8  4
  4.661305033464e-02    8  5  4  1
 -4.013301573281e-03    8  5  4  3
 -2.310197371622e-02    8  5  5  4
 -1.603650437581e-02    8  5  8  1
  5.101408320372e-04    8  5  8  3
  3.061035907760e-02    8  5  8  5
 -1.929168677011e-02    8  6  4  2
 -1.526350444889e-02    8  6  6  4
 -2.987472055994e-03    8  6  7  4
  7.913788474941e-03    8  6  8  2
  1.828803280492e-02    8  6  8  6
 -1.555792614199e-03    8  7  4  2
 -3.669670665353e-03    8  7  6  4
  5.036982894375e-04    8  7  7  4
  3.863131722860e-03    8  7  8  2
  1.586282267020e-03    8  7  8  6
  2.680430723963e-03    8  7  8  7
  6.103749175549e-01    8  8  1  1
  5.409652132285e-01    8  8  2  2
  3.262619786732e-02    8  8  3  1
  5.813327985379e-01    8  8  3  3
  6.532030327667e-01    8  8  4  4
 -1.054303528535e-01    8  8  5  1
  1.072189039290e-01    8  8  5  3
  5.486376719212e-01    8  8  5  5
  1.496160636996e-01    8  8  6  2
  5.576128988516e-01    8  8  6  6
 -1.275782417033e-02    8  8  7  2
  7.276447255327e-02    8  8  7  6
  3.031362913271e-01    8  8  7  7
 -1.635766476215e-01    8  8  8  4
  5.956879118577e-01    8  8  8  8
  3.535118442124e-02    9  1  1  1
  3.977882508134e-02    9  1  2  2
 -3.012079864968e-03    9  1  3  1
  3.189534260837e-02    9  1  3  3
  2.514662060947e-02    9  1  4  4
  9.174998262871e-03    9  1  5  1
 -3.428920188140e-03    9  1  5  3
  2.980237032665e-02    9  1  5  5
 -2.560936466875e-03    9  1  6  2
  3.814177874071e-02    9  1  6  6
 -1.388732616988e-02    9  1  7  2
  1.573649984701e-02    9  1  7  6
  1.819807545489e-02    9  1  7  7
 -8.992246674830e-03    9  1  8  4
  1.656505058301e-02    9  1  8  8
  1.191125217667e-02    9  1  9  1
  2.305639305117e-02    9  2  2  1
 -8.040838578090e-03    9  2  3  2
  1.276537183331e-02    9  2  5  2
 -2.317378622397e-03    9  2  6  1
  1.350844077466e-02    9  2  6  3
 -1.670702721639e-02    9  2  6  5
 -1.202980783132e-02    9  2  7  1
  1.152287664327e-02    9  2  7  3
 -1.711449172907e-02    9  2  7  5
  1.597497512371e-02    9  2  9  2
  2.566038171603e-02    9  3  1  1
  1.448621932431e-02    9  3  2  2
  1.391247789058e-02    9  3  3  1
  3.580009663192e-02    9  3  3  3
  3.391882939084e-02    9  3  4  4
 -1.824855839815e-02    9  3  5  1
  2.849936876788e-02    9  3  5  3
  2.666282692507e-02    9  3  5  5
  3.382370241221e-02    9  3  6  2
  2.901777162867e-02    9  3  6  6
  1.331180200288e-02    9  3  7  2
 -1.405117442686e-03    9  3  7  6
  1.620035334530e-03    9  3  7  7
 -3.428109562264e-02    9  3  8  4
  2.939718132008e-02    9  3  8  8
 -1.108952077184e-03    9  3  9  1
  2.243740813849e-02    9  3  9  3
 -2.891069162798e-03    9  4  4  1
  1.771662873315e-03    9  4  4  3
  2.532271696874e-03    9  4  5  4
 -3.742685077805e-03    9  4  8  1
 -6.254566977685e-03    9  4  8  3
 -4.870995400512e-03    9  4  8  5
  4.942710280093e-03    9  4  9  4
  1.087604946923e-01    9  5  1  1
  9.283799664947e-02    9  5  2  2
 -5.039483871048e-03    9  5  3  1
  9.919650335961e-02    9  5  3  3
  9.439220637263e-02    9  5  4  4
 -3.123428326484e-02    9  5  5  1
  3.419716675471e-02    9  5  5  3
  1.066675931380e-01    9  5  5  5
  3.295477518625e-02    9  5  6  2
  9.714866306832e-02    9  5  6  6
 -1.789511918826e-02    9  5  7  2
  3.532216194198e-02    9  5  7  6
  2.003487843259e-02    9  5  7  7
 -4.662077254070e-02    9  5  8  4
  7.800515557180e-02    9  5  8  8
  1.020833008111e-02    9  5  9  1
  3.762454469499e-03    9  5  9  3
  3.760267771030e-02    9  5  9  5
 -7.025408482086e-03    9  6  2  1
  1.347437384872e-02    9  6  3  2
 -4.890501829644e-03    9  6  5  2
  8.526733097536e-03    9  6  6  1
  1.727055942850e-03    9  6  6  3
  1.339180156237e-02    9  6  6  5
  1.063969938646e-02    9  6  7  1
 -8.441543848572e-03    9  6  7  3
  1.803272581034e-02    9  6  7  5
 -1.168596742586e-02    9  6  9  2
  1.643587880536e-02    9  6  9  6
 -6.068505709204e-02    9  7  2  1
  2.636514232667e-02    9  7  3  2
 -5.140088785748e-02    9  7  5  2
  2.114496346297e-02    9  7  6  1
 -3.670415102675e-02    9  7  6  3
  7.454402515492e-02    9  7  6  5
  1.570499941781e-02    9  7  7  1
 -6.808280932282e-03    9  7  7  3
  4.687752965962e-03    9  7  7  5
 -1.299050058179e-03    9  7  9  2
 -7.173518077792e-03    9  7  9  6
  8.963878315609e-02    9  7  9  7
 -1.774341423789e-02    9  8  4  1
 -1.401008585634e-02    9  8  4  3
 -3.465617869887e-03    9  8  5  4
 -4.291444239767e-03    9  8  8  1
  2.970300433337e-03    9  8  8  3
 -2.540187660854e-03    9  8  8  5
  4.189117335223e-03    9  8  9  4
  1.426077408796e-02    9  8  9  8
  3.676742745260e-01    9  9  1  1
  3.641187199328e-01    9  9  2  2
 -1.207623599612e-02    9  9  3  1
  3.559223930121e-01    9  9  3  3
  3.473651075631e-01    9  9  4  4
 -8.822992977123e-03    9  9  5  1
  1.081330117330e-02    9  9  5  3
  3.732870791135e-01    9  9  5  5
  7.682944245090e-03    9  9  6  2
  3.680293849875e-01    9  9  6  6
 -1.756766214403e-02    9  9  7  2
  2.665580443741e-02    9  9  7  6
  3.053438077299e-01    9  9  7  7
 -3.204632398278e-02    9  9  8  4
  3.301240824738e-01    9  9  8  8
  1.145764145144e-02    9  9  9  1
  4.177501462148e-03    9  9  9  3
  2.275418149535e-02    9  9  9  5
  3.002224388121e-01    9  9  9  9
 -4.096229177505e-02    10  1  1  1
 -1.665297336242e-02    10  1  2  2
 -2.530169975950e-02    10  1  3  1
 -5.449825114622e-02    10  1  3  3
 -6.531755187310e-02    10  1  4  4
  2.174235771704e-02    10  1  5  1
 -3.034625571330e-02    10  1  5  3
 -1.673503270373e-02    10  1  5  5
 -5.043756941927e-02    10  1  6  2
 -3.006619484478e-02    10  1  6  6
 -1.731385975791e-02    10  1  7  2
  1.439446833395e-03    10  1  7  6
  1.029996288544e-02    10  1  7  7
  3.969816544640e-02    10  1  8  4
 -5.125294083288e-02    10  1  8  8
 -2.814986091316e-04    10  1  9  1
 -1.991806814676e-02    10  1  9  3
 -2.177484719655e-03    10  1  9  5
 -6.880219763302e-04    10  1  9  9
  3.336671450281e-02    10  1  10  1
  3.734069776297e-02    10  2  2  1
 -2.655677414108e-02    10  2  3  2
  3.710377068099e-02    10  2  5  2
 -2.605279014139e-02    10  2  6  1
  1.520069916886e-02    10  2  6  3
 -5.058974604427e-02    10  2  6  5
 -2.086867420958e-02    10  2  7  1
  1.185993218254e-02    10  2  7  3
 -2.199324702910e-02    10  2  7  5
  1.115725508911e-02    10  2  9  2
 -1.346408537867e-02    10  2  9  6
 -3.541807845266e-02    10  2  9  7
  4.070610536188e-02    10  2  10  2
 -1.179067645926e-01    10  3  1  1
 -1.102150668971e-01    10  3  2  2
 -2.078798237160e-02    10  3  3  1
 -1.251041276928e-01    10  3  3  3
 -1.154587542061e-01    10  3  4  4
  2.262184856680e-02    10  3  5  1
 -4.744495022000e-02    10  3  5  3
 -1.127525721552e-01    10  3  5  5
 -5.409441685517e-02    10  3  6  2
 -1.304440733898e-01    10  3  6  6
  7.706831774911e-03    10  3  7  2
 -3.461537156372e-02    10  3  7  6
 -3.403447158873e-02    10  3  7  7
  7.758058281540e-02    10  3  8  4
 -9.357875580733e-02    10  3  8  8
 -1.721714766572e-02    10  3  9  1
 -2.854917595345e-02    10  3  9  3
 -3.527152674342e-02    10  3  9  5
 -2.799341583056e-02    10  3  9  9
  2.215114915614e-02    10  3  10  1
  8.056927635971e-02    10  3  10  3
 -3.998036513574e-02    10  4  4  1
 -1.412717009497e-02    10  4  4  3
  8.949072723126e-03    10  4  5  4
  1.753148198210e-02    10  4  8  1
  1.678335747647e-02    10  4  8  3
 -1.152204661440e-02    10  4  8  5
 -3.795861141138e-03    10  4  9  4
  4.385498608111e-03    10  4  9  8
  2.321648496470e-02    10  4  10  4
  1.579479921505e-03    10  5  1  1
  2.609620966952e-02    10  5  2  2
 -2.777181772050e-02    10  5  3  1
 -3.323535477161e-02    10  5  3  3
 -1.800791603215e-02    10  5  4  4
  2.468170168185e-02    10  5  5  1
 -3.857080692099e-02    10  5  5  3
  1.669817277006e-02    10  5  5  5
 -4.999882493607e-02    10  5  6  2
  1.795594295063e-02    10  5  6  6
 -2.642959218675e-02    10  5  7  2
  1.600486441100e-02    10  5  7  6
  3.176754585607e-02    10  5  7  7
  1.940689077111e-02    10  5  8  4
 -2.037969921096e-02    10  5  8  8
  9.881207971568e-03    10  5  9  1
 -1.892762638503e-02    10  5  9  3
  4.065945529169e-03    10  5  9  5
  9.749629905462e-03    10  5  9  9
  2.703219668604e-02    10  5  10  1
  2.930044895239e-03    10  5  10  3
  4.469444470804e-02    10  5  10  5
 -6.677900574338e-02    10  6  2  1
  7.269548063743e-03    10  6  3  2
 -3.891601738736e-02    10  6  5  2
 -2.234219230204e-03    10  6  6  1
 -4.477759222568e-02    10  6  6  3
  5.685361193021e-02    10  6  6  5
  1.734487639377e-02    10  6  7  1
 -1.832104393854e-02    10  6  7  3
  2.406701716168e-02    10  6  7  5
 -1.849713464082e-02    10  6  9  2
  7.660994568214e-03    10  6  9  6
  3.594264443208e-02    10  6  9  7
 -2.681198679242e-02    10  6  10  2
  5.106116564820e-02    10  6  10  6
 -5.232099499033e-02    10  7  2  1
  1.802158858233e-02    10  7  3  2
 -3.786560071416e-02    10  7  5  2
  1.136137564065e-02    10  7  6  1
 -3.165874094599e-02    10  7  6  3
  5.460691934075e-02    10  7  6  5
  1.797475585424e-02    10  7  7  1
 -1.350808782339e-02    10  7  7  3
  1.907177453983e-02    10  7  7  5
 -1.390148506983e-02    10  7  9  2
  7.550519556760e-03    10  7  9  6
  4.445155949963e-02    10  7  9  7
 -2.970532327426e-02    10  7  10  2
  3.656841850526e-02    10  7  10  6
  3.599027419942e-02    10  7  10  7
  2.840020421997e-02    10  8  4  1
  2.710560617038e-02    10  8  4  3
 -5.942177493316e-03    10  8  5  4
 -1.599391469405e-02    10  8  8  1
 -6.140102030889e-03    10  8  8  3
  7.736265821844e-04    10  8  8  5
  8.073026889772e-04    10  8  9  4
 -8.052296621786e-03    10  8  9  8
 -7.068298935284e-03    10  8  10  4
  2.544661300945e-02    10  8  10  8
 -2.707907163857e-02    10  9  1  1
 -1.069951497517e-02    10  9  2  2
 -5.126838901964e-02    10  9  3  1
 -7.362741705378e-02    10  9  3  3
 -5.507485384994e-02    10  9  4  4
  2.303332635133e-02    10  9  5  1
 -4.286521220662e-02    10  9  5  3
  5.189186138858e-03    10  9  5  5
 -5.864114898778e-02    10  9  6  2
 -1.318768003531e-02    10  9  6  6
 -1.770640888925e-02    10  9  7  2
  1.845760299576e-03    10  9  7  6
  3.322769210575e-02    10  9  7  7
  2.659614137124e-02    10  9  8  4
 -4.701340518442e-02    10  9  8  8
  7.512169317118e-03    10  9  9  1
 -4.981860681290e-03    10  9  9  3
 -9.427666384972e-03    10  9  9  5
  6.436779706057e-03    10  9  9  9
  1.551125649980e-02    10  9  10  1
  4.609390023650e-03    10  9  10  3
  2.736688673440e-02    10  9  10  5
  5.136627403539e-02    10  9  10  9
  5.259702641144e-01    10  10  1  1
  5.040481443871e-01    10  10  2  2
  2.631886276519e-02    10  10  3  1
  5.464664874430e-01    10  10  3  3
  5.129358044391e-01    10  10  4  4
 -3.009911166889e-02    10  10  5  1
  5.563236473354e-02    10  10  5  3
  4.975703097320e-01    10  10  5  5
  6.909825580923e-02    10  10  6  2
  5.116864013883e-01    10  10  6  6
 -3.736674785041e-02    10  10  7  2
  7.451653269229e-02    10  10  7  6
  3.205301993617e-01    10  10  7  7
 -9.061793273233e-02    10  10  8  4
  4.663727409755e-01    10  10  8  8
  2.680510526256e-02    10  10  9  1
  4.998201356940e-03    10  10  9  3
  6.913981975265e-02    10  10  9  5
  3.368596728930e-01    10  10  9  9
 -1.487017472337e-02    10  10  10  1
 -6.666963991813e-02    10  10  10  3
  4.416423060412e-03    10  10  10  5
 -3.069022809452e-02    10  10  10  9
  4.767532343334e-01    10  10  10  10
 -2.099322909360e-02    11  1  2  1
  1.574990011117e-02    11  1  3  2
 -1.099382267031e-03    11  1  5  2
 -4.586219007970e-03    11  1  6  1
 -6.479782303269e-03    11  1  6  3
  2.569799728774e-02    11  1  6  5
  6.907814172741e-03    11  1  7  1
 -7.650919781662e-03    11  1  7  3
  1.114484946713e-02    11  1  7  5
 -1.079279337457e-02    11  1  9  2
  8.349438382560e-03    11  1  9  6
  7.988780980494e-03    11  1  9  7
 -4.493065879907e-03    11  1  10  2
  1.406237423380e-02    11  1  10  6
  1.171827584127e-02    11  1  10  7
  2.280846849822e-02    11  1  11  1
 -8.298929752966e-02    11  2  1  1
 -7.281648090442e-02    11  2  2  2
  3.301772770510e-02    11  2  3  1
 -4.837125544486e-02    11  2  3  3
 -5.463121814729e-02    11  2  4  4
  2.631734734877e-02    11  2  5  1
 -1.341015828087e-02    11  2  5  3
 -1.012508456000e-01    11  2  5  5
 -1.894219283731e-02    11  2  6  2
 -9.506581741561e-02    11  2  6  6
  1.369017314788e-02    11  2  7  2
 -2.940451830328e-02    11  2  7  6
 -3.707027320599e-02    11  2  7  7
  4.762436354832e-02    11  2  8  4
 -4.633535185761e-02    11  2  8  8
 -1.274837402242e-02    11  2  9  1
 -1.060785231992e-02    11  2  9  3
 -2.505826846314e-02    11  2  9  5
 -2.274425378319e-02    11  2  9  9
  6.008712612127e-03    11  2  10  1
  3.704509283282e-02    11  2  10  3
 -7.790949818357e-03    11  2  10  5
 -1.899573684250e-02    11  2  10  9
 -3.824655730375e-02    11  2  10  10
  5.571528535972e-02    11  2  11  2
  4.092172216821e-02    11  3  2  1
 -6.674575376158e-03    11  3  3  2
  1.969733461581e-02    11  3  5  2
 -2.592640438100e-03    11  3  6  1
  1.915065374621e-02    11  3  6  3
 -3.622513052199e-02    11  3  6  5
 -1.089973192230e-02    11  3  7  1
  6.715616740561e-03    11  3  7  3
 -1.020516527478e-02    11  3  7  5
  2.792886785403e-03    11  3  9  2
 -4.142449121832e-03    11  3  9  6
 -2.757260424747e-02    11  3  9  7
  2.345224754575e-02    11  3  10  2
 -1.786947566950e-02    11  3  10  6
 -1.935734114833e-02    11  3  10  7
  2.154263980127e-03    11  3  11  1
  2.774327563435e-02    11  3  11  3
  3.241210339193e-03    11  4  4  2
 -3.649931182375e-03    11  4  6  4
 -2.415248546406e-04    11  4  7  4
  8.560154688641e-03    11  4  8  2
  2.513734189483e-03    11  4  8  6
  2.757715589843e-03    11  4  8  7
  1.148914535230e-02    11  4  11  4
 -4.003310186707e-03    11  5  2  1
  1.272024873985e-02    11  5  3  2
 -3.131522788736e-02    11  5  5  2
  2.534660352835e-02    11  5  6  1
 -1.608234197623e-02    11  5  6  3
  2.140158803732e-02    11  5  6  5
  1.050056167647e-02    11  5  7  1
 -6.810155444748e-03    11  5  7  3
  1.034175525661e-02    11  5  7  5
 -8.926024792008e-03    11  5  9  2
  5.610534352444e-03    11  5  9  6
  2.138040616064e-02    11  5  9  7
 -1.612085858241e-02    11  5  10  2
  1.731907997960e-02    11  5  10  6
  1.820678833868e-02    11  5  10  7
  5.742268168573e-03    11  5  11  1
 -6.499070955080e-03    11  5  11  3
  2.271061148230e-02    11  5  11  5
 -7.036637759903e-02    11  6  1  1
 -5.093228868342e-02    11  6  2  2
 -2.426299773945e-02    11  6  3  1
 -6.694000048116e-02    11  6  3  3
 -8.376941237267e-02    11  6  4  4
  5.163212694108e-02    11  6  5  1
 -5.310877839811e-02    11  6  5  3
 -4.097371773516e-02    11  6  5  5
 -8.639738453355e-02    11  6  6  2
 -6.176586551357e-02    11  6  6  6
 -1.930144119262e-02    11  6  7  2
 -7.121211792539e-03    11  6  7  6
  1.661158870478e-02    11  6  7  7
  5.602295386575e-02    11  6  8  4
 -7.476493540600e-02    11  6  8  8
  5.166837712029e-03    11  6  9  1
 -1.895673918071e-02    11  6  9  3
 -1.408493736482e-02    11  6  9  5
 -6.440625430419e-04    11  6  9  9
  2.530981059237e-02    11  6  10  1
  2.533872880931e-02    11  6  10  3
  2.805188963093e-02    11  6  10  5
  3.056190513634e-02    11  6  10  9
 -2.321521199811e-02    11  6  10  10
  8.141615143504e-03    11  6  11  2
  5.350420833381e-02    11  6  11  6
  2.213089811883e-02    11  7  1  1
  2.714467851015e-02    11  7  2  2
 -1.488299035610e-02    11  7  3  1
  1.101680389466e-02    11  7  3  3
  9.336085139297e-03    11  7  4  4
  9.605128498633e-03    11  7  5  1
 -1.127173047858e-02    11  7  5  3
  2.753996271633e-02    11  7  5  5
 -2.241584361552e-02    11  7  6  2
  2.025460507018e-02    11  7  6  6
 -1.868893277040e-02    11  7  7  2
  1.559954026387e-02    11  7  7  6
  1.509383505873e-02    11  7  7  7
  8.306056096025e-03    11  7  8  4
  8.019479742321e-03    11  7  8  8
  7.710041214425e-03    11  7  9  1
 -1.035681555481e-02    11  7  9  3
  1.081562814620e-02    11  7  9  5
  1.027289678560e-02    11  7  9  9
  1.181358445353e-02    11  7  10  1
 -3.339834838094e-03    11  7  10  3
  1.809580043510e-02    11  7  10  5
  9.515652244564e-03    11  7  10  9
  2.250613774441e-02    11  7  10  10
 -5.137278449071e-03    11  7  11  2
  1.281460183386e-02    11  7  11  6
  1.618123694090e-02    11  7  11  7
  1.557941291225e-02    11  8  4  2
  8.330170271688e-03    11  8  6  4
  2.370335563544e-03    11  8  7  4
  6.608602283799e-04    11  8  8  2
 -1.110844899798e-02    11  8  8  6
  1.151009758065e-03    11  8  8  7
  8.049992040602e-03    11  8  11  4
  1.784049065956e-02    11  8  11  8
 -3.457586257562e-02    11  9  2  1
 -1.250861383755e-04    11  9  3  2
 -1.958139481971e-02    11  9  5  2
  1.499810572497e-03    11  9  6  1
 -1.979262135749e-02    11  9  6  3
  2.372099532256e-02    11  9  6  5
  9.604838041003e-03    11  9  7  1
 -9.123168220147e-03    11  9  7  3
  1.201523441478e-02    11  9  7  5
 -4.681393139570e-03    11  9  9  2
  3.756423681855e-03    11  9  9  6
  1.653416907751e-02    11  9  9  7
 -1.930014185283e-02    11  9  10  2
  2.138127832599e-02    11  9  10  6
  1.604275685482e-02    11  9  10  7
 -4.788526729437e-03    11  9  11  1
 -2.040725831344e-02    11  9  11  3
  4.864866907767e-03    11  9  11  5
  2.705971644820e-02    11  9  11  9
  5.302942639307e-03    11  10  2  1
  2.462792877301e-02    11  10  3  2
 -1.171363735618e-02    11  10  5  2
  2.058992900641e-02    11  10  6  1
  3.970581388792e-03    11  10  6  3
  1.748548877541e-02    11  10  6  5
  9.974616839675e-03    11  10  7  1
 -6.277039532275e-03    11  10  7  3
  1.356714798826e-02    11  10  7  5
 -1.238492074411e-02    11  10  9  2
  1.346065970136e-02    11  10  9  6
  4.912160073796e-03    11  10  9  7
 -1.031940198686e-02    11  10  10  2
  6.683033690309e-03    11  10  10  6
  1.025352847128e-02    11  10  10  7
  1.719572199004e-02    11  10  11  1
  8.607378312849e-03    11  10  11  3
  1.295713584876e-02    11  10  11  5
 -1.185319696850e-02    11  10  11  9
  3.385659032206e-02    11  10  11  10
  4.935065089834e-01    11  11  1  1
  4.883766410961e-01    11  11  2  2
  2.717955686765e-02    11  11  3  1
  4.895652109649e-01    11  11  3  3
  4.818402312680e-01    11  11  4  4
 -3.583415963373e-02    11  11  5  1
  4.863608660050e-02    11  11  5  3
  4.534633164037e-01    11  11  5  5
  7.279065529741e-02    11  11  6  2
  4.792129183002e-01    11  11  6  6
 -2.714533649470e-02    11  11  7  2
  5.849657311296e-02    11  11  7  6
  3.069261617266e-01    11  11  7  7
 -6.670986011140e-02    11  11  8  4
  4.415662076091e-01    11  11  8  8
  1.460871792007e-02    11  11  9  1
 -3.990042998021e-03    11  11  9  3
  5.447548445161e-02    11  11  9  5
  3.239935439651e-01    11  11  9  9
 -1.558967060468e-03    11  11  10  1
 -4.567631875362e-02    11  11  10  3
  1.278521878992e-02    11  11  10  5
 -3.647435922415e-02    11  11  10  9
  4.287468314281e-01    11  11  10  10
 -4.499429025073e-03    11  11  11  2
 -3.155388447300e-02    11  11  11  6
  2.011544223783e-02    11  11  11  7
  4.577806202491e-01    11  11  11  11
 -9.132168353564e-02    12  1  1  1
 -8.324029322721e-02    12  1  2  2
 -1.366107336173e-02    12  1  3  1
 -8.793541342076e-02    12  1  3  3
 -8.048465582393e-02    12  1  4  4
  4.006712310181e-02    12  1  5  1
 -4.427896339766e-02    12  1  5  3
 -9.150396516500e-02    12  1  5  5
 -6.006327652936e-02    12  1  6  2
 -1.032692890015e-01    12  1  6  6
  3.369941953598e-04    12  1  7  2
 -2.536556466585e-02    12  1  7  6
 -1.851450799778e-02    12  1  7  7
  7.676492846240e-02    12  1  8  4
 -6.773711842108e-02    12  1  8  8
 -5.443568007161e-03    12  1  9  1
 -1.966205676221e-02    12  1  9  3
 -2.862644282058e-02    12  1  9  5
 -1.808290356056e-02    12  1  9  9
  1.133551427964e-02    12  1  10  1
  5.095978776767e-02    12  1  10  3
  3.810071436977e-03    12  1  10  5
  1.082417256521e-02    12  1  10  9
 -4.678109206695e-02    12  1  10  10
  3.392625168346e-02    12  1  11  2
  2.923655758105e-02    12  1  11  6
  2.083083184030e-03    12  1  11  7
 -3.485974809104e-02    12  1  11  11
  5.538517080901e-02    12  1  12  1
 -4.184064396104e-02    12  2  2  1
  5.125461245658e-03    12  2  3  2
 -9.411261753081e-03    12  2  5  2
 -1.497810426298e-02    12  2  6  1
 -2.248758568132e-02    12  2  6  3
  3.664926014948e-02    12  2  6  5
  6.389310481142e-03    12  2  7  1
 -8.955100089712e-03    12  2  7  3
  1.160227447548e-02    12  2  7  5
 -9.945670542081e-03    12  2  9  2
  3.277405630331e-03    12  2  9  6
  1.971804688396e-02    12  2  9  7
 -9.012350093989e-03    12  2  10  2
  2.840432884345e-02    12  2  10  6
  1.931732621019e-02    12  2  10  7
  1.945834348806e-02    12  2  11  1
 -5.400158501729e-03    12  2  11  3
  6.045369261142e-03    12  2  11  5
  3.689110955817e-03    12  2  11  9
  8.014062717152e-03    12  2  11  10
  2.831856479686e-02    12  2  12  2
 -5.035510508454e-02    12  3  1  1
 -3.655131506400e-02    12  3  2  2
 -2.164869883311e-02    12  3  3  1
 -7.231432399414e-02    12  3  3  3
 -5.789538496118e-02    12  3  4  4
  5.407877972988e-03    12  3  5  1
 -2.558260932221e-02    12  3  5  3
 -3.090887876373e-02    12  3  5  5
 -3.833479786569e-02    12  3  6  2
 -4.792816640787e-02    12  3  6  6
 -5.904472240666e-03    12  3  7  2
 -8.805403677763e-03    12  3  7  6
 -2.251438128925e-03    12  3  7  7
  3.723135031428e-02    12  3  8  4
 -4.718478660827e-02    12  3  8  8
 -9.149393999030e-03    12  3  9  1
 -1.824498046073e-02    12  3  9  3
 -9.001320349404e-03    12  3  9  5
 -8.602279679848e-03    12  3  9  9
  2.926452335877e-02    12  3  10  1
  3.326881607582e-02    12  3  10  3
  2.059894491841e-02    12  3  10  5
  1.029298701458e-02    12  3  10  9
 -3.324560825288e-02    12  3  10  10
  1.219517836725e-02    12  3  11  2
  1.881931406217e-02    12  3  11  6
  4.838922314543e-03    12  3  11  7
 -9.364691306191e-03    12  3  11  11
  1.327365813648e-02    12  3  12  1
  3.693203809957e-02    12  3  12  3
  1.413784872394e-02    12  4  4  1
 -2.405107271099e-03    12  4  4  3
  6.958206054290e-03    12  4  5  4
  2.736205331688e-02    12  4  8  1
  7.965321592711e-03    12  4  8  3
  3.909198902028e-03    12  4  8  5
 -7.078654770243e-03    12  4  9  4
 -1.227277762038e-02    12  4  9  8
  2.584796639510e-03    12  4  10  4
 -8.982776083447e-03    12  4  10  8
  4.469472419258e-02    12  4  12  4
  6.847215478967e-02    12  5  1  1
  3.653380689203e-02    12  5  2  2
 -1.763800338387e-02    12  5  3  1
  3.265944406803e-02    12  5  3  3
  6.356504922877e-02    12  5  4  4
 -5.458120956401e-02    12  5  5  1
  3.337987589081e-02    12  5  5  3
  5.464493702802e-02    12  5  5  5
  4.700525331418e-02    12  5  6  2
  3.310649433931e-02    12  5  6  6
  6.348156017792e-03    12  5  7  2
  4.183781110887e-03    12  5  7  6
 -8.717604217209e-03    12  5  7  7
 -3.295226261637e-02    12  5  8  4
  5.522574592859e-02    12  5  8  8
 -6.250551570456e-03    12  5  9  1
  7.106249536769e-03    12  5  9  3
  1.188817335507e-02    12  5  9  5
  2.647764568695e-03    12  5  9  9
 -1.341520540003e-02    12  5  10  1
 -1.275013353932e-04    12  5  10  3
 -1.888134767894e-02    12  5  10  5
 -9.407263308723e-03    12  5  10  9
  1.091175884642e-02    12  5  10  10
 -8.242659970142e-03    12  5  11  2
 -2.907183272953e-02    12  5  11  6
 -5.629425954026e-03    12  5  11  7
  1.701841056659e-02    12  5  11  11
 -1.035700831230e-02    12  5  12  1
 -5.027046552662e-03    12  5  12  3
  3.833743961534e-02    12  5  12  5
 -1.887432614376e-02    12  6  2  1
 -2.137180310480e-02    12  6  3  2
  3.116183195797e-02    12  6  5  2
 -4.326515940953e-02    12  6  6  1
 -2.903081093991e-03    12  6  6  3