 &FCI NORB=  24,NELEC=10,MS2=0,
  ORBSYM=0,0,2,0,3,0,2,2,0,0,3,2,0,1,3,0,2,2,0,3,1,0,0,2
  ISYM=1,
 &END
 4.739839357771527    1    1    1    1
 -0.4310168070824114    1    1    2    1
 1.045273618004193    1    1    2    2
 0.8734482404444098    1    1    3    3
 -0.140496533636162    1    1    4    1
 0.09079068684097111    1    1    4    2
 0.9826519665848057    1    1    4    4
 1.03868352443139    1    1    5    5
 0.1454054884942685    1    1    6    1
 -0.2089379393342454    1    1    6    2
 0.1079377589974476    1    1    6    4
 0.4091230690065497    1    1    6    6
 0.2438757281136225    1    1    7    3
 0.3985069315150303    1    1    7    7
 0.1667814911768442    1    1    8    3
 0.1602288609862077    1    1    8    7
 0.5594906513272162    1    1    8    8
 0.1309890451147226    1    1    9    1
 -0.1723804804862395    1    1    9    2
 0.1684028001238529    1    1    9    4
 0.1716098191008175    1    1    9    6
 0.5880378331172044    1    1    9    9
 0.09298141818223332    1    1   10    1
 -0.02838609781822327    1    1   10    2
 -0.4026978694516458    1    1   10    4
 -0.08895700939812198    1    1   10    6
 -0.1331183131933818    1    1   10    9
 0.8279337341567015    1    1   10   10
 -0.5112583817159386    1    1   11    5
 0.9971318457891563    1    1   11   11
 -0.3355140947627467    1    1   12    3
 -0.219831423458089    1    1   12    7
 -0.1216691094042179    1    1   12    8
 0.776138763830308    1    1   12   12
 -0.1612436234399201    1    1   13    1
 0.1515833692310436    1    1   13    2
 0.09416679790998941    1    1   13    4
 -0.06581651969923444    1    1   13    6
 -0.005730812778768211    1    1   13    9
 -0.057608705799909    1    1   13   10
 0.5734496451395406    1    1   13   13
 0.5156378112983075    1    1   14   14
 -0.02181127921180266    1    1   15    5
 0.03240468914725161    1    1   15   11
 0.5130468188583481    1    1   15   15
 0.3119809252042997    1    1   16    1
 -0.2886049015978516    1    1   16    2
 -0.1431863430768661    1    1   16    4
 0.126861017068281    1    1   16    6
 0.02701990369258497    1    1   16    9
 0.1124536185027961    1    1   16   10
 -0.1098422533046457    1    1   16   13
 0.7788593285086913    1    1   16   16
 0.00652388852676809    1    1   17    3
 0.006687600925610024    1    1   17    7
 0.01161423634956054    1    1   17    8
 -0.01080636383936887    1    1   17   12
 0.4637982482708511    1    1   17   17
 0.1914666491975134    1    1   18    3
 0.1427334827310169    1    1   18    7
 0.2386189816970348    1    1   18    8
 -0.28099135931916    1    1   18   12
 0.01772113217309897    1    1   18   17
 0.8100106816932762    1    1   18   18
 0.2107820362972055    1    1   19    1
 -0.1894957254995858    1    1   19    2
 0.1210851513935213    1    1   19    4
 0.1486822347901072    1    1   19    6
 0.272473932336365    1    1   19    9
 -0.1687357232433488    1    1   19   10
 -0.05319478127936956    1    1   19   13
 0.06972446538365135    1    1   19   16
 0.8200131312234252    1    1   19   19
 -0.004924222597320036    1    1   20    5
 8.707281910797917e-05    1    1   20   11
 -0.1515234721378459    1    1   20   15
 0.8802428604004184    1    1   20   20
 -0.1487673649446067    1    1   21   14
 0.8853496287334766    1    1   21   21
 0.009808425876533923    1    1   22    1
 -0.008204229657041377    1    1   22    2
 -0.01665968451182438    1    1   22    4
 -0.0002270353815521136    1    1   22    6
 -0.03466629517981332    1    1   22    9
 -0.01531350355023055    1    1   22   10
 -0.1543461559548985    1    1   22   13
 -0.06331679101306711    1    1   22   16
 0.007085414041573101    1    1   22   19
 0.8727926362200746    1    1   22   22
 -0.04955153479160748    1    1   23    1
 0.05249805867983697    1    1   23    2
 -0.09908226264993614    1    1   23    4
 -0.0424923350986286    1    1   23    6
 -0.05501631343832341    1    1   23    9
 0.1876968771302524    1    1   23   10
 0.02093948241403924    1    1   23   13
 -0.1005928818757307    1    1   23   16
 0.0456031780321441    1    1   23   19
 -0.008894221408585463    1    1   23   22
 0.8909654719299437    1    1   23   23
 0.1275406451088741    1    1   24    3
 0.05417573610104916    1    1   24    7
 -0.004475438094467073    1    1   24    8
 -0.2291372445968197    1    1   24   12
 -0.01773432811679899    1    1   24   17
 -0.03392394199727353    1    1   24   18
 0.9225564691726641    1    1   24   24
 -0.4310168070824119    2    1    1    1
 0.06373710718494854    2    1    2    1
 -0.01415680565613791    2    1    2    2
 -0.006356072609979793    2    1    3    3
 0.01707509543631687    2    1    4    1
 -0.007866148289183651    2    1    4    2
 -0.01260006516254835    2    1    4    4
 -0.01130453815710208    2    1    5    5
 -0.02290549396242754    2    1    6    1
 0.004545709559322122    2    1    6    2
 -0.0005690794180685633    2    1    6    4
 -0.001903291487635257    2    1    6    6
 -0.004128608402148676    2    1    7    3
 -0.002089784857939587    2    1    7    7
 -0.004986469341040582    2    1    8    3
 -0.002408222949752568    2    1    8    7
 -0.00198883569036967    2    1    8    8
 -0.02145801870557282    2    1    9    1
 0.003899491889094365    2    1    9    2
 -0.00296859110707115    2    1    9    4
 -0.00234589890137731    2    1    9    6
 -0.002577783994395072    2    1    9    9
 -0.009760032996040609    2    1   10    1
 0.004200369657854227    2    1   10    2
 0.01245626361048876    2    1   10    4
 0.001156548876976589    2    1   10    6
 0.004257421766456291    2    1   10    9
 -0.01302523388421558    2    1   10   10
 0.01422404330497807    2    1   11    5
 -0.01804467894772773    2    1   11   11
 0.008117754753700135    2    1   12    3
 0.004705769430947468    2    1   12    7
 0.004656867477196383    2    1   12    8
 -0.01056505903536857    2    1   12   12
 0.02324886106024908    2    1   13    1
 -0.006023071527701113    2    1   13    2
 -0.002874562472885738    2    1   13    4
 0.001688962359766757    2    1   13    6
 0.0008408791559855635    2    1   13    9
 0.00417650533330991    2    1   13   10
 -0.002452936580195301    2    1   13   13
 0.0009672510635325264    2    1   14   14
 0.001854755116616858    2    1   15    5
 -0.000875854082933554    2    1   15   11
 0.0004971856893138225    2    1   15   15
 -0.04504982738434473    2    1   16    1
 0.01104600552545196    2    1   16    2
 0.007817729360395846    2    1   16    4
 -0.002797215476553015    2    1   16    6
 -0.001697946533161392    2    1   16    9
 -0.006903151063734044    2    1   16   10
 0.005210220784153584    2    1   16   13
 -0.009498647426874564    2    1   16   16
 -0.0001115133551559628    2    1   17    3
 -0.0002547526090779898    2    1   17    7
 -0.0006559733146393105    2    1   17    8
 -0.0001772802047189266    2    1   17   12
 0.00080921836589072    2    1   17   17
 -0.009846080708792334    2    1   18    3
 -0.005495624289751635    2    1   18    7
 -0.005202585775703368    2    1   18    8
 0.01134584518867195    2    1   18   12
 -0.0005479210514011182    2    1   18   17
 -0.01066459117035748    2    1   18   18
 -0.03473111397825771    2    1   19    1
 0.007992446475384808    2    1   19    2
 -0.00462038100320278    2    1   19    4
 -0.004594425550556863    2    1   19    6
 -0.005850539196702822    2    1   19    9
 0.006147720817721629    2    1   19   10
 0.001356188431438212    2    1   19   13
 -0.003417556515003823    2    1   19   16
 -0.008932744682922154    2    1   19   19
 -0.003232126035492397    2    1   20    5
 0.0022516963212345    2    1   20   11
 0.0008637907143313741    2    1   20   15
 -0.002036174680285165    2    1   20   20
 0.0005549234727294189    2    1   21   14
 -0.002214685648578061    2    1   21   21
 -0.001206039173152545    2    1   22    1
 0.0008523337831572721    2    1   22    2
 -0.002672719239323281    2    1   22    4
 -0.001011143063193867    2    1   22    6
 -0.001516406147818393    2    1   22    9
 0.001564426866374987    2    1   22   10
 0.0006812891731137787    2    1   22   13
 0.0003938851610147077    2    1   22   16
 -0.001066839818147447    2    1   22   19
 -0.002033182212062552    2    1   22   22
 0.009886467224567793    2    1   23    1
 -0.002082275225131199    2    1   23    2
 0.003566291972511069    2    1   23    4
 0.001818560346616581    2    1   23    6
 0.002150638271622215    2    1   23    9
 -0.004762799408511324    2    1   23   10
 0.0001917215161578692    2    1   23   13
 0.0002958142092986634    2    1   23   16
 0.003316620617026731    2    1   23   19
 0.0005544315489160162    2    1   23   22
 -0.004554652382870285    2    1   23   23
 -0.00234570506567831    2    1   24    3
 -0.001254910742408955    2    1   24    7
 -0.0007875996773093303    2    1   24    8
 0.004002204883055106    2    1   24   12
 0.0003589551450469453    2    1   24   17
 -0.003708968250422942    2    1   24   18
 -0.0045674424957932    2    1   24   24
 1.045273618004193    2    2    1    1
 -0.01415680565613793    2    2    2    1
 0.7533286367986795    2    2    2    2
 0.6787773620698725    2    2    3    3
 -0.0146338486240483    2    2    4    1
 -0.01752537992001991    2    2    4    2
 0.6795946084582797    2    2    4    4
 0.7137073463386517    2    2    5    5
 0.001810838931151115    2    2    6    1
 -0.1086031509230884    2    2    6    2
 0.05865621187136802    2    2    6    4
 0.3665450480968015    2    2    6    6
 0.1245543498663224    2    2    7    3
 0.3454170831825363    2    2    7    7
 0.03310552862227608    2    2    8    3
 0.1003116377177145    2    2    8    7
 0.5113319468079973    2    2    8    8
 -0.0007333230305101935    2    2    9    1
 -0.07101719948375011    2    2    9    2
 0.06616011900625725    2    2    9    4
 0.112572003240976    2    2    9    6
 0.5229552201912021    2    2    9    9
 0.01309050802196908    2    2   10    1
 0.005716651170952732    2    2   10    2
 -0.1452946896148935    2    2   10    4
 -0.04849077649292165    2    2   10    6
 -0.02768458919846106    2    2   10    9
 0.5699017423953475    2    2   10   10
 -0.1884996944417367    2    2   11    5
 0.6171125254270011    2    2   11   11
 -0.1379191595838428    2    2   12    3
 -0.1108442410067479    2    2   12    7
 -0.02782579407275944    2    2   12    8
 0.5423529140836183    2    2   12   12
 -0.006664936701620766    2    2   13    1
 0.04687012178199179    2    2   13    2
 0.05911007948048066    2    2   13    4
 -0.03512751869345699    2    2   13    6
 0.004416476017934708    2    2   13    9
 0.01650667090411276    2    2   13   10
 0.5199744166148806    2    2   13   13
 0.5265736571555211    2    2   14   14
 0.0180824292330201    2    2   15    5
 0.02451935094843064    2    2   15   11
 0.512030379194365    2    2   15   15
 0.01167337614336979    2    2   16    1
 -0.1001099341929686    2    2   16    2
 -0.0286352610202022    2    2   16    4
 0.07238532521849893    2    2   16    6
 -0.007783589650507579    2    2   16    9
 0.01326362105251652    2    2   16   10
 -0.02065345333535947    2    2   16   13
 0.5881666997373297    2    2   16   16
 0.0003871486893400541    2    2   17    3
 -0.001163534541910029    2    2   17    7
 -0.008004665590187761    2    2   17    8
 -0.01785959677892242    2    2   17   12
 0.4864082923580159    2    2   17   17
 0.005489354713973167    2    2   18    3
 0.03142067808408596    2    2   18    7
 0.1214916970567939    2    2   18    8
 -0.07325077313157466    2    2   18   12
 0.003966425026448894    2    2   18   17
 0.6060718933217263    2    2   18   18
 -1.361180998847321e-06    2    2   19    1
 -0.03607814591923131    2    2   19    2
 0.01119298817656124    2    2   19    4
 0.05188870590109882    2    2   19    6
 0.1340721823488825    2    2   19    9
 -0.04401638920103711    2    2   19   10
 -0.03121831366253056    2    2   19   13
 0.01674023463877863    2    2   19   16
 0.6269270456281018    2    2   19   19
 -0.03772038998904891    2    2   20    5
 0.01952527159684559    2    2   20   11
 -0.08905087511811469    2    2   20   15
 0.7046700988316398    2    2   20   20
 -0.09065930172656265    2    2   21   14
 0.7053101239224396    2    2   21   21
 0.0007842414607827047    2    2   22    1
 0.003616080753200403    2    2   22    2
 -0.0380486819674753    2    2   22    4
 -0.01103529164361122    2    2   22    6
 -0.04392997338101845    2    2   22    9
 0.002584922724593282    2    2   22   10
 -0.09433284803563459    2    2   22   13
 -0.03583858627095007    2    2   22   16
 -0.003088058070785348    2    2   22   19
 0.7014408425452593    2    2   22   22
 0.003045332305047621    2    2   23    1
 0.01125427787074192    2    2   23    2
 -0.01819163517041661    2    2   23    4
 -0.007683880281954419    2    2   23    6
 -0.03173154839179423    2    2   23    9
 0.07486643586012992    2    2   23   10
 0.02228957157014891    2    2   23   13
 -0.06269007744183304    2    2   23   16
 0.04975506176851352    2    2   23   19
 -0.004227256526977515    2    2   23   22
 0.6888140435425903    2    2   23   23
 0.04892678130030326    2    2   24    3
 0.02040506058659491    2    2   24    7
 0.0004496705606699195    2    2   24    8
 -0.1188304344682484    2    2   24   12
 -0.008425740887082662    2    2   24   17
 -0.05363691265723169    2    2   24   18
 0.7008867236107318    2    2   24   24
 0.01919804734106598    3    1    3    1
 0.02314503457380752    3    1    3    2
 0.003096438619249628    3    1    4    3
 -0.004375032096706204    3    1    6    3
 0.01082565467616615    3    1    7    1
 0.009773087851337334    3    1    7    2
 0.003880928637377356    3    1    7    4
 -0.004847888717142777    3    1    7    6
 0.01036688622010731    3    1    8    1
 0.007333612621086023    3    1    8    2
 0.008917933763123472    3    1    8    4
 -0.001724166705506355    3    1    8    6
 0.0007820441829847015    3    1    9    3
 -0.001920573406561845    3    1    9    7
 -0.004443830876622089    3    1    9    8
 0.001659186873967938    3    1   10    3
 -0.0004311879196718111    3    1   10    7
 -0.00193551318771718    3    1   10    8
 -0.02357643988983268    3    1   12    1
 -0.01316697563732206    3    1   12    2
 -0.001372599023872711    3    1   12    4
 0.006634731156491415    3    1   12    6
 0.004965880673248632    3    1   12    9
 0.002697784730772835    3    1   12   10
 0.009403369636862294    3    1   13    3
 0.004225836111805883    3    1   13    7
 0.005558541787980984    3    1   13    8
 -0.006445978753562076    3    1   13   12
 -0.007188192140193456    3    1   14    5
 0.0007101661060215241    3    1   14   11
 -0.006319875690363816    3    1   15   14
 -0.01033141461082125    3    1   16    3
 -0.005569839567214961    3    1   16    7
 -0.003674429978462426    3    1   16    8
 0.01406766158284415    3    1   16   12
 0.0002492602889284312    3    1   17    1
 0.0001542269348801994    3    1   17    2
 0.001241639094074578    3    1   17    4
 -0.0002510979050700388    3    1   17    6
 -0.003195800960771111    3    1   17    9
 -0.002970157494981868    3    1   17   10
 -0.005466921485997884    3    1   17   13
 -0.0008465062025232769    3    1   17   16
 0.02339987608475602    3    1   18    1
 0.005870272675652244    3    1   18    2
 0.01037044981137595    3    1   18    4
 -0.0009404876135821464    3    1   18    6
 -0.0002395607676936911    3    1   18    9
 -0.006927539355998475    3    1   18   10
 0.004218723349239852    3    1   18   13
 -0.008894653645044066    3    1   18   16
 0.001462349813000828    3    1   19    3
 0.0001129695448250843    3    1   19    7
 -0.001066004857858222    3    1   19    8
 0.002880997060541456    3    1   19   12
 -0.001254964592668109    3    1   19   17
 -0.007681276800527321    3    1   19   18
 -0.000804187484831936    3    1   20   14
 0.01725916646429751    3    1   21    5
 -0.01196196881009795    3    1   21   11
 -0.001685446857162463    3    1   21   15
 0.00087146318354353    3    1   21   20
 -0.01056883501276492    3    1   22    3
 -0.005792060766711396    3    1   22    7
 -0.005223224645224978    3    1   22    8
 0.007681577085237301    3    1   22   12
 -0.0004383356862098305    3    1   22   17
 -0.004751113098977725    3    1   22   18
 0.01210938383739274    3    1   23    3
 0.007109125533635995    3    1   23    7
 0.008713386660448758    3    1   23    8
 -0.008732913201097226    3    1   23   12
 0.0003757337495579756    3    1   23   17
 0.008333197316966263    3    1   23   18
 0.01281062309447288    3    1   24    1
 0.005726920601460595    3    1   24    2
 -0.01288096249441422    3    1   24    4
 -0.005769296111422992    3    1   24    6
 -0.009291150131224616    3    1   24    9
 0.009471704639396285    3    1   24   10
 0.002174477351480254    3    1   24   13
 -0.003183751502030975    3    1   24   16
 -0.008582594934468208    3    1   24   19
 -0.001926490669280697    3    1   24   22
 0.003782543661926017    3    1   24   23
 0.02314503457380752    3    2    3    1
 0.1538304053216966    3    2    3    2
 -0.0177061149085205    3    2    4    3
 0.000518035049918012    3    2    6    3
 0.01270458994948005    3    2    7    1
 0.03979352898886922    3    2    7    2
 0.02434863005016488    3    2    7    4
 -0.05057306530239006    3    2    7    6
 0.01186420923060465    3    2    8    1
 0.003680221168448471    3    2    8    2
 0.07688981857465392    3    2    8    4
 -0.01006327534179402    3    2    8    6
 0.05968720458292653    3    2    9    3
 -0.01660805572674707    3    2    9    7
 -0.0820466639343389    3    2    9    8
 0.03546528291129396    3    2   10    3
 0.005837310380534164    3    2   10    7
 0.0009245727991956873    3    2   10    8
 -0.02555443819872488    3    2   12    1
 -0.03691372057638333    3    2   12    2
 0.01219045711259119    3    2   12    4
 0.04273460236327346    3    2   12    6
 0.042197001230997    3    2   12    9
 0.02076494608004996    3    2   12   10
 0.04470313674081343    3    2   13    3
 0.01483708981957743    3    2   13    7
 0.04659165091395852    3    2   13    8
 -0.01115513762345714    3    2   13   12
 -0.06564174651009667    3    2   14    5
 -0.02490778071233947    3    2   14   11
 -0.1083897350649039    3    2   15   14
 -0.02718138763136061    3    2   16    3
 -0.01058704691911006    3    2   16    7
 0.01562444686859473    3    2   16    8
 0.0762162163523918    3    2   16   12
 0.0004516234603949546    3    2   17    1
 -0.003366193398819525    3    2   17    2
 0.00256839146291933    3    2   17    4
 -0.004014830299083153    3    2   17    6
 -0.05127104199278607    3    2   17    9
 -0.04688830879593586    3    2   17   10
 -0.09063927451178985    3    2   17   13
 -0.01227732529441951    3    2   17   16
 0.02282051983371769    3    2   18    1
 -0.02106605811305869    3    2   18    2
 0.05456940952842015    3    2   18    4
 0.01440408484031656    3    2   18    6
 0.009934633462305411    3    2   18    9
 -0.04062133423500806    3    2   18   10
 0.002581910994524431    3    2   18   13
 -0.02561657430565174    3    2   18   16
 0.04870398910157833    3    2   19    3
 0.02393334910320534    3    2   19    7
 -0.002438289201203716    3    2   19    8
 -0.006583695007800112    3    2   19   12
 -0.01126576105393379    3    2   19   17
 -0.1024509047655068    3    2   19   18
 -0.02418322882906789    3    2   20   14
 0.08688343272780351    3    2   21    5
 -0.04711813321891466    3    2   21   11
 -0.027683773940608    3    2   21   15
 -0.0106432014172179    3    2   21   20
 -0.05291954598593619    3    2   22    3
 -0.0311594641005403    3    2   22    7
 -0.01839911545507066    3    2   22    8
 0.03586364420731834    3    2   22   12
 -0.02434536971143789    3    2   22   17
 -0.009752312252659486    3    2   22   18
 0.03986309811450755    3    2   23    3
 0.03299841850676762    3    2   23    7
 0.06480715760435481    3    2   23    8
 -0.02136239841122663    3    2   23   12
 0.01090324759963688    3    2   23   17
 0.05301071854498111    3    2   23   18
 0.01390421794069662    3    2   24    1
 0.01380948593176322    3    2   24    2
 -0.05442994222811801    3    2   24    4
 -0.0245035475901674    3    2   24    6
 -0.0589463382161605    3    2   24    9
 0.03197681751345832    3    2   24   10
 0.01144784522859042    3    2   24   13
 -0.009322391310025088    3    2   24   16
 -0.0509649694346826    3    2   24   19
 0.00423632965530416    3    2   24   22
 0.02047550377980484    3    2   24   23
 0.8734482404444096    3    3    1    1
 -0.006356072609979775    3    3    2    1
 0.6787773620698722    3    3    2    2
 0.6633440672263486    3    3    3    3
 -0.007164586780488534    3    3    4    1
 -0.01483975985878856    3    3    4    2
 0.6050693158756045    3    3    4    4
 0.6217035788611931    3    3    5    5
 0.0005207713656480965    3    3    6    1
 -0.07858106365537375    3    3    6    2
 0.03771467126977336    3    3    6    4
 0.3564664219761441    3    3    6    6
 0.1063498522412058    3    3    7    3
 0.3478860155847899    3    3    7    7
 0.01260679444814797    3    3    8    3
 0.09596247428584967    3    3    8    7
 0.5189395015177867    3    3    8    8
 -0.0001263720681392671    3    3    9    1
 -0.02325091085317508    3    3    9    2
 0.03011597690275396    3    3    9    4
 0.1022964754402404    3    3    9    6
 0.5229401846672084    3    3    9    9
 0.006672320793410107    3    3   10    1
 0.01434388660779059    3    3   10    2
 -0.1174095025771338    3    3   10    4
 -0.03659811804148969    3    3   10    6
 -0.006045599008186728    3    3   10    9
 0.5229530870123189    3    3   10   10
 -0.1420007964699666    3    3   11    5
 0.5480458938780463    3    3   11   11
 -0.10999592367387    3    3   12    3
 -0.1026134562930443    3    3   12    7
 -0.02736209358188887    3    3   12    8
 0.5249458402567064    3    3   12   12
 -0.002287670754376051    3    3   13    1
 0.05207819087018032    3    3   13    2
 0.05305661083777439    3    3   13    4
 -0.02732507200771859    3    3   13    6
 0.01064357391346973    3    3   13    9
 0.02937316989395607    3    3   13   10
 0.5052172228574232    3    3   13   13
 0.5293681479261224    3    3   14   14
 0.02605026788121886    3    3   15    5
 0.03128073792706054    3    3   15   11
 0.5046726402924814    3    3   15   15
 0.004979505474466751    3    3   16    1
 -0.08352386016877705    3    3   16    2
 -0.02168993644675544    3    3   16    4
 0.06143557292871674    3    3   16    6
 -0.009809901225051147    3    3   16    9
 0.01763327965359422    3    3   16   10
 -0.007000185447101757    3    3   16   13
 0.5397202804416401    3    3   16   16
 -0.02313972982931031    3    3   17    3
 0.0008239279795924362    3    3   17    7
 -0.0005575422785365075    3    3   17    8
 -0.02653420606487186    3    3   17   12
 0.4982374708890037    3    3   17   17
 -0.0010572850583523    3    3   18    3
 0.01774408697968875    3    3   18    7
 0.09956998491372361    3    3   18    8
 -0.06032674996734268    3    3   18   12
 0.01118660803614277    3    3   18   17
 0.5937178096001957    3    3   18   18
 0.0007000202689357094    3    3   19    1
 -0.001374141907925985    3    3   19    2
 0.005745046963207219    3    3   19    4
 0.02818547379965629    3    3   19    6
 0.102336472078866    3    3   19    9
 -0.01757699835127955    3    3   19   10
 -0.01250472010596457    3    3   19   13
 0.01190172721274905    3    3   19   16
 0.5935461453959797    3    3   19   19
 -0.01853075001027947    3    3   20    5
 0.01640448163308599    3    3   20   11
 -0.04996105297445051    3    3   20   15
 0.6079429737498007    3    3   20   20
 -0.06648999612455993    3    3   21   14
 0.6507805638352248    3    3   21   21
 -0.002277735160337729    3    3   22    1
 -0.02345589544714387    3    3   22    2
 -0.02750541885471922    3    3   22    4
 0.003018707332229069    3    3   22    6
 -0.02607707230181725    3    3   22    9
 0.003096908926609785    3    3   22   10
 -0.06669423837604775    3    3   22   13
 -0.0124970934599337    3    3   22   16
 -0.01284621210553549    3    3   22   19
 0.6281280229680237    3    3   22   22
 0.005064321669490526    3    3   23    1
 0.02428614624633437    3    3   23    2
 0.00464967992022894    3    3   23    4
 -0.01028100471039651    3    3   23    6
 -0.03970248235039749    3    3   23    9
 0.05121790788637785    3    3   23   10
 0.03073646761626838    3    3   23   13
 -0.04860677051036166    3    3   23   16
 0.02705057659806156    3    3   23   19
 -0.02779774553949933    3    3   23   22
 0.6390319085453127    3    3   23   23
 0.02810715576838935    3    3   24    3
 0.01252600900002492    3    3   24    7
 0.008809403148367636    3    3   24    8
 -0.09878816222175166    3    3   24   12
 -0.003389412369238669    3    3   24   17
 -0.03285861427008246    3    3   24   18
 0.6498197531672492    3    3   24   24
 -0.1404965336361623    4    1    1    1
 0.01707509543631689    4    1    2    1
 -0.01463384862404828    4    1    2    2
 -0.007164586780488541    4    1    3    3
 0.02993817050645883    4    1    4    1
 0.02278405908990624    4    1    4    2
 0.009486635740841898    4    1    4    4
 -0.004338927011170175    4    1    5    5
 0.0006932485687412864    4    1    6    1
 0.009639446080929039    4    1    6    2
 -0.003806550275703182    4    1    6    4
 -0.00651810896495974    4    1    6    6
 -0.0008767880809795073    4    1    7    3
 -0.001794634521828145    4    1    7    7
 0.005161347634387163    4    1    8    3
 0.0006042303552504806    4    1    8    7
 -0.001469189012743826    4    1    8    8
 0.006814790531580327    4    1    9    1
 0.01202048928212293    4    1    9    2
 -0.003273177072653974    4    1    9    4
 -0.006878462518683277    4    1    9    6
 -0.01156330957846865    4    1    9    9
 -0.03101370426573851    4    1   10    1
 -0.01261327087563283    4    1   10    2
 -0.005495640813780195    4    1   10    4
 0.006082022547227754    4    1   10    6
 0.002659551678959821    4    1   10    9
 0.002638844865016301    4    1   10   10
 0.004447257721728035    4    1   11    5
 -0.005489289995155099    4    1   11   11
 0.006152244603581501    4    1   12    3
 0.002689608774488554    4    1   12    7
 0.00157204180779377    4    1   12    8
 -0.003900345062914225    4    1   12   12
 0.01155138332521151    4    1   13    1
 -0.0002186056214941075    4    1   13    2
 -0.00352815631649179    4    1   13    4
 3.469164358020603e-05    4    1   13    6
 0.001713592627978453    4    1   13    9
 -0.006593925545369356    4    1   13   10
 -0.001823530402428626    4    1   13   13
 -0.006184527563042814    4    1   14   14
 -0.007428911991081246    4    1   15    5
 0.00105995920481258    4    1   15   11
 -0.003764723002484162    4    1   15   15
 -0.01890145431828969    4    1   16    1
 0.004313279894738838    4    1   16    2
 -0.01374834003812126    4    1   16    4
 -0.004902111238624131    4    1   16    6
 -0.006896597071252632    4    1   16    9
 0.01462035449010525    4    1   16   10
 -0.00169507609174492    4    1   16   13
 -0.0007538468943389167    4    1   16   16
 -7.086497979201894e-05    4    1   17    3
 0.001091807938092953    4    1   17    7
 0.003359888620018348    4    1   17    8
 0.001696389999879211    4    1   17   12
 -0.004630788470158922    4    1   17   17
 0.005254642169742723    4    1   18    3
 0.002405901329514377    4    1   18    7
 0.001269680258423067    4    1   18    8
 -0.001625960898272227    4    1   18   12
 0.002384831371301575    4    1   18   17
 -0.003790382794116306    4    1   18   18
 0.01023721055366528    4    1   19    1
 0.009775524182560745    4    1   19    2
 -0.003067035078023927    4    1   19    4
 -0.005923411710104329    4    1   19    6
 -0.00827497276965068    4    1   19    9
 0.006012298941576968    4    1   19   10
 0.003592977456439317    4    1   19   13
 -0.008050152838692062    4    1   19   16
 -0.01657642918763497    4    1   19   19
 0.01875267596253898    4    1   20    5
 -0.01266863933370688    4    1   20   11
 -0.001967465050872169    4    1   20   15
 -9.374776262988018e-05    4    1   20   20
 -0.0004155459253694266    4    1   21   14
 0.0008984671516196257    4    1   21   21
 -0.001253707547288119    4    1   22    1
 -0.003356961257324125    4    1   22    2
 0.01846276813829148    4    1   22    4
 0.005987020470552057    4    1   22    6
 0.009757745391274981    4    1   22    9
 -0.01135327273591992    4    1   22   10
 -0.0001249944969883224    4    1   22   13
 -0.002686957110442153    4    1   22   16
 0.006543782032748469    4    1   22   19
 -0.0003870997095365046    4    1   22   22
 -0.009707298007922728    4    1   23    1
 -0.004581718916670888    4    1   23    2
 0.002992800113637257    4    1   23    4
 0.003031748102681627    4    1   23    6
 0.005533474936428454    4    1   23    9
 -0.002100999957164459    4    1   23   10
 -0.001415168714906292    4    1   23   13
 0.00439590315399514    4    1   23   16
 0.007360737940715257    4    1   23   19
 -0.003892682002158456    4    1   23   22
 -0.001562323350113219    4    1   23   23
 -0.01558297581927323    4    1   24    3
 -0.008792933625770199    4    1   24    7
 -0.008814222268820584    4    1   24    8
 0.01288399011959898    4    1   24   12
 -0.001984419579398451    4    1   24   17
 -0.009344586579189117    4    1   24   18
 -0.005598340956039191    4    1   24   24
 0.09079068684097102    4    2    1    1
 -0.007866148289183654    4    2    2    1
 -0.01752537992001991    4    2    2    2
 -0.01483975985878851    4    2    3    3
 0.02278405908990626    4    2    4    1
 0.1261855950358417    4    2    4    2
 0.07065451736816013    4    2    4    4
 0.03767996079394181    4    2    5    5
 0.009218885941393432    4    2    6    1
 0.01686208456334189    4    2    6    2
 0.003473403474654071    4    2    6    4