 &FCI NORB=14 ,NELEC=14 ,MS2=0,
  ORBSYM=1,1,1,1,1,1,1,1,1,1,1,1,1,1,
  ISYM=1,
 &END
2.000000  1  1  1  1
2.000000  2  2  2  2
2.000000  3  3  3  3
2.000000  4  4  4  4
2.000000  5  5  5  5
2.000000  6  6  6  6
2.000000  7  7  7  7
2.000000  8  8  8  8
2.000000  9  9  9  9
2.000000  10  10  10  10
2.000000  11  11  11  11
2.000000  12  12  12  12
2.000000  13  13  13  13
2.000000  14  14  14  14
-1.000000  1  2  0  0
-1.000000  2  3  0  0
-1.000000  3  4  0  0
-1.000000  4  5  0  0
-1.000000  5  6  0  0
-1.000000  6  7  0  0
-1.000000  7  8  0  0
-1.000000  8  9  0  0
-1.000000  9  10  0  0
-1.000000  10  11  0  0
-1.000000  11  12  0  0
-1.000000  12  13  0  0
-1.000000  13  14  0  0
