 &FCI NORB= 12,NELEC= 8,MS2= 0,
  ORBSYM=1,1,2,2,3,3,4,5,5,6,7,8,
  ISYM=1
 &END
   0.648800962585         1     1     1     1
   0.409561904362E-17     2     1     1     1
   0.344448428459E-01     2     1     2     1
   0.499397502649         2     2     1     1
   0.938889901438E-18     2     2     2     1
   0.466226707908         2     2     2     2
   0.527525929872         3     3     1     1
   0.256191454531E-01     3     3     2     1
   0.455705086901         3     3     2     2
   0.488929167008         3     3     3     3
  -0.131469183567         4     3     1     1
  -0.448516560113E-02     4     3     2     1
  -0.756074156279E-01     4     3     2     2
  -0.972295465056E-01     4     3     3     3
   0.635970539318E-01     4     3     4     3
   0.420491737539         4     4     1     1
   0.149184169552E-01     4     4     2     1
   0.369217080259         4     4     2     2
   0.395924968369         4     4     3     3
  -0.582979478354E-01     4     4     4     3
   0.349338183406         4     4     4     4
   0.527525929872         5     5     1     1
  -0.256191454531E-01     5     5     2     1
   0.455705086901         5     5     2     2
   0.448804082530         5     5     3     3
  -0.902472005882E-01     5     5     4     3
   0.369507608898         5     5     4     4
   0.488929167008         5     5     5     5
  -0.131469183567         6     5     1     1
   0.448516560113E-02     6     5     2     1
  -0.756074156279E-01     6     5     2     2
  -0.902472005882E-01     6     5     3     3
   0.499920873914E-01     6     5     4     3
  -0.597646384710E-01     6     5     4     4
  -0.972295465056E-01     6     5     5     5
   0.635970539318E-01     6     5     6     5
   0.420491737539         6     6     1     1
  -0.149184169552E-01     6     6     2     1
   0.369217080259         6     6     2     2
   0.369507608898         6     6     3     3
  -0.597646384710E-01     6     6     4     3
   0.321522901050         6     6     4     4
   0.395924968369         6     6     5     5
  -0.582979478354E-01     6     6     6     5
   0.349338183406         6     6     6     6
   0.499397502649         7     7     1     1
   0.172060037270E-17     7     7     2     1
   0.446689470353         7     7     2     2
   0.455705086901         7     7     3     3
  -0.756074156279E-01     7     7     4     3
   0.369217080259         7     7     4     4
   0.455705086901         7     7     5     5
  -0.756074156279E-01     7     7     6     5
   0.369217080259         7     7     6     6
   0.466226707908         7     7     7     7
   0.439527594739         8     8     1     1
  -0.920701586837E-18     8     8     2     1
   0.404798273474         8     8     2     2
   0.415440115411         8     8     3     3
  -0.742521503672E-01     8     8     4     3
   0.347804835907         8     8     4     4
   0.415440115411         8     8     5     5
  -0.742521503672E-01     8     8     6     5
   0.347804835907         8     8     6     6
   0.404798273474         8     8     7     7
   0.445782980793         8     8     8     8
  -0.472853970283E-17     9     8     1     1
   0.241918736151E-01     9     8     2     1
  -0.514286688491E-17     9     8     2     2
   0.193915755653E-01     9     8     3     3
  -0.193032442830E-02     9     8     4     3
   0.122529389849E-01     9     8     4     4
  -0.193915755653E-01     9     8     5     5
   0.193032442830E-02     9     8     6     5
  -0.122529389849E-01     9     8     6     6
  -0.346740953959E-17     9     8     7     7
  -0.197411379123E-17     9     8     8     8
   0.270797463597E-01     9     8     9     8
   0.467766930697         9     9     1     1
   0.351408434281E-17     9     9     2     1
   0.449577114455         9     9     2     2
   0.438227255212         9     9     3     3
  -0.691145561881E-01     9     9     4     3
   0.359228679191         9     9     4     4
   0.438227255212         9     9     5     5
  -0.691145561881E-01     9     9     6     5
   0.359228679191         9     9     6     6
   0.431290211912         9     9     7     7
   0.410938702838         9     9     8     8
  -0.114117445694E-17     9     9     9     8
   0.447149824028         9     9     9     9
   0.426464034705        10    10     1     1
   0.172232813554E-01    10    10     2     1
   0.393049763458        10    10     2     2
   0.414304972044        10    10     3     3
  -0.647503810567E-01    10    10     4     3
   0.350526381528        10    10     4     4
   0.385366770996        10    10     5     5
  -0.631049247260E-01    10    10     6     5
   0.328118940118        10    10     6     6
   0.393049763458        10    10     7     7
   0.391117602318        10    10     8     8
   0.191018875998E-01    10    10     9     8
   0.393098096687        10    10     9     9
   0.382711108662        10    10    10    10
   0.426464034705        11    11     1     1
  -0.172232813554E-01    11    11     2     1
   0.393049763458        11    11     2     2
   0.385366770996        11    11     3     3
  -0.631049247260E-01    11    11     4     3
   0.328118940118        11    11     4     4
   0.414304972044        11    11     5     5
  -0.647503810567E-01    11    11     6     5
   0.350526381528        11    11     6     6
   0.393049763458        11    11     7     7
   0.391117602318        11    11     8     8
  -0.191018875998E-01    11    11     9     8
   0.393098096687        11    11     9     9
   0.353158202336        11    11    10    10
   0.382711108662        11    11    11    11
   0.467766930697        12    12     1     1
   0.157827602685E-17    12    12     2     1
   0.431290211912        12    12     2     2
   0.438227255212        12    12     3     3
  -0.691145561881E-01    12    12     4     3
   0.359228679191        12    12     4     4
   0.438227255212        12    12     5     5
  -0.691145561881E-01    12    12     6     5
   0.359228679191        12    12     6     6
   0.449577114455        12    12     7     7
   0.410938702838        12    12     8     8
  -0.253105450365E-17    12    12     9     8
   0.426667157735        12    12     9     9
   0.393098096687        12    12    10    10
   0.393098096687        12    12    11    11
   0.447149824028        12    12    12    12
   0.891027356870E-01     3     1     3     1
   0.619298617211E-01     3     2     3     1
   0.582646825803E-01     3     2     3     2
  -0.339005696582E-01     4     1     3     1
  -0.179338122384E-01     4     1     3     2
   0.243026600009E-01     4     1     4     1
  -0.882438883965E-02     4     2     3     1
  -0.418772934167E-02     4     2     3     2
   0.992202188553E-02     4     2     4     1
   0.760685387311E-02     4     2     4     2
   0.619298617211E-01     7     5     3     1
   0.356283198942E-01     7     5     3     2
  -0.179338122446E-01     7     5     4     1
  -0.272004100586E-02     7     5     4     2
   0.582646825803E-01     7     5     7     5
  -0.882438883319E-02     7     6     3     1
  -0.272004100586E-02     7     6     3     2
   0.992202188514E-02     7     6     4     1
   0.309825700195E-02     7     6     4     2
  -0.418772934167E-02     7     6     7     5
   0.760685387311E-02     7     6     7     6
   0.564320461929E-01    10     8     3     1
   0.448774541364E-01    10     8     3     2
  -0.142389972050E-01    10     8     4     1
  -0.203302616134E-02    10     8     4     2
   0.448774541364E-01    10     8     7     5
  -0.203302616134E-02    10     8     7     6
   0.597454463230E-01    10     8    10     8
   0.478263362123E-01    10     9     3     1
   0.472866278944E-01    10     9     3     2
  -0.116463555410E-01    10     9     4     1
  -0.146327669889E-02    10     9     4     2
   0.294228663992E-01    10     9     7     5
  -0.130193831410E-02    10     9     7     6
   0.445572228476E-01    10     9    10     8
   0.453040933620E-01    10     9    10     9
   0.478263362123E-01    12    11     3     1
   0.294228663992E-01    12    11     3     2
  -0.116463555410E-01    12    11     4     1
  -0.130193831410E-02    12    11     4     2
   0.472866278944E-01    12    11     7     5
  -0.146327669889E-02    12    11     7     6
   0.445572228389E-01    12    11    10     8
   0.269109675529E-01    12    11    10     9
   0.453040933620E-01    12    11    12    11
   0.891027356870E-01     5     1     5     1
  -0.619298617211E-01     5     2     5     1
   0.582646825803E-01     5     2     5     2
  -0.339005696582E-01     6     1     5     1
   0.179338122384E-01     6     1     5     2
   0.243026600009E-01     6     1     6     1
   0.882438883965E-02     6     2     5     1
  -0.418772934167E-02     6     2     5     2
  -0.992202188553E-02     6     2     6     1
   0.760685387311E-02     6     2     6     2
   0.619298617212E-01     7     3     5     1
  -0.356283198942E-01     7     3     5     2
  -0.179338122447E-01     7     3     6     1
   0.272004100586E-02     7     3     6     2
   0.582646825803E-01     7     3     7     3
  -0.882438883332E-02     7     4     5     1
   0.272004100586E-02     7     4     5     2
   0.992202188437E-02     7     4     6     1
  -0.309825700195E-02     7     4     6     2
  -0.418772934167E-02     7     4     7     3
   0.760685387311E-02     7     4     7     4
   0.564320461929E-01    11     8     5     1
  -0.448774541364E-01    11     8     5     2
  -0.142389972050E-01    11     8     6     1
   0.203302616134E-02    11     8     6     2
   0.448774541364E-01    11     8     7     3
  -0.203302616134E-02    11     8     7     4
   0.597454463230E-01    11     8    11     8
  -0.478263362123E-01    11     9     5     1
   0.472866278944E-01    11     9     5     2
   0.116463555410E-01    11     9     6     1
  -0.146327669889E-02    11     9     6     2
  -0.294228663992E-01    11     9     7     3
   0.130193831410E-02    11     9     7     4
  -0.445572228476E-01    11     9    11     8
   0.453040933620E-01    11     9    11     9
   0.478263362123E-01    12    10     5     1
  -0.294228663992E-01    12    10     5     2
  -0.116463555410E-01    12    10     6     1
   0.130193831410E-02    12    10     6     2
   0.472866278944E-01    12    10     7     3
  -0.146327669889E-02    12    10     7     4
   0.445572228384E-01    12    10    11     8
  -0.269109675529E-01    12    10    11     9
   0.453040933620E-01    12    10    12    10
   0.200625422360E-01     5     3     5     3
  -0.349117295289E-02     5     4     5     3
   0.680248323706E-02     5     4     5     4
  -0.349117295289E-02     6     3     5     3
   0.680248326270E-02     6     3     5     4
   0.680248323706E-02     6     3     6     3
   0.132086797228E-01     6     4     5     3
   0.733345369425E-03     6     4     5     4
   0.733345369425E-03     6     4     6     3
   0.139076410484E-01     6     4     6     4
   0.256191454544E-01     7     1     5     3
  -0.448516559936E-02     7     1     5     4
  -0.448516559948E-02     7     1     6     3
   0.149184169512E-01     7     1     6     4
   0.344448428459E-01     7     1     7     1
  -0.269931284090E-18     7     2     5     3
  -0.219780391437E-18     7     2     5     4
  -0.219780391320E-18     7     2     6     3
  -0.257593175984E-18     7     2     6     4
  -0.390855235602E-18     7     2     7     1
   0.976861876768E-02     7     2     7     2
   0.144691005130E-01    11    10     5     3
  -0.822728176334E-03    11    10     5     4
  -0.822728176334E-03    11    10     6     3
   0.112037207118E-01    11    10     6     4
   0.172232813565E-01    11    10     7     1
  -0.213451066460E-18    11    10     7     2
   0.147764531268E-01    11    10    11    10
   0.193915755742E-01    12     8     5     3
  -0.193032444259E-02    12     8     5     4
  -0.193032444259E-02    12     8     6     3
   0.122529390297E-01    12     8     6     4
   0.241918736151E-01    12     8     7     1
  -0.837728671687E-18    12     8     7     2
   0.191018876138E-01    12     8    11    10
   0.270797463597E-01    12     8    12     8
   0.819645206318E-18    12     9     5     3
   0.964596419662E-19    12     9     5     4
   0.964596419662E-19    12     9     6     3
   0.619874569107E-18    12     9     6     4
   0.967904158017E-18    12     9     7     1
   0.914345125601E-02    12     9     7     2
   0.980673260344E-18    12     9    11    10
   0.694940023780E-18    12     9    12     8
   0.102413331400E-01    12     9    12     9
   0.620022375176E-01     8     1     8     1
  -0.475172255528E-17     8     2     8     1
   0.188565961820E-01     8     2     8     2
   0.122196202714E-17     9     1     8     1
   0.179314437929E-01     9     1     8     2
   0.190577769752E-01     9     1     9     1
   0.768377993370E-01     9     2     8     1
  -0.583466180034E-17     9     2     8     2
   0.359241579040E-17     9     2     9     1
   0.120761280385         9     2     9     2
   0.747372652771E-01    10     3     8     1
   0.136051140594E-01    10     3     8     2
   0.136117716856E-01    10     3     9     1
   0.977979173819E-01    10     3     9     2
   0.104515952718        10     3    10     3
  -0.153425966132E-01    10     4     8     1
  -0.627732545481E-03    10     4     8     2
  -0.185572566576E-02    10     4     9     1
  -0.102319525971E-01    10     4     9     2
  -0.172523391056E-01    10     4    10     3
   0.329260775653E-01    10     4    10     4
   0.747372652771E-01    11     5     8     1
  -0.136051140594E-01    11     5     8     2
  -0.136117716856E-01    11     5     9     1
   0.977979173819E-01    11     5     9     2
   0.831156641069E-01    11     5    10     3
  -0.153080373403E-01    11     5    10     4
   0.104515952718        11     5    11     5
  -0.153425966132E-01    11     6     8     1
   0.627732545481E-03    11     6     8     2
   0.185572566576E-02    11     6     9     1
  -0.102319525971E-01    11     6     9     2
  -0.153080373403E-01    11     6    10     3
   0.225252760057E-01    11     6    10     4
  -0.172523391056E-01    11     6    11     5
   0.329260775653E-01    11     6    11     6
   0.768377993370E-01    12     7     8     1
  -0.554066228314E-17    12     7     8     2
   0.303290011311E-17    12     7     9     1
   0.104180333461        12     7     9     2
   0.977979173819E-01    12     7    10     3
  -0.102319525971E-01    12     7    10     4
   0.977979173819E-01    12     7    11     5
  -0.102319525971E-01    12     7    11     6
   0.120761280385        12     7    12     7
   0.352423385456E-01     8     3     8     3
  -0.705368051346E-02     8     4     8     3
   0.989915333914E-02     8     4     8     4
   0.279581053993E-01     9     3     8     3
  -0.464239447289E-02     9     3     8     4
   0.329080036698E-01     9     3     9     3
  -0.361032508791E-02     9     4     8     3
   0.584430259078E-02     9     4     8     4
  -0.307074362090E-02     9     4     9     3
   0.594997911885E-02     9     4     9     4
   0.298782977267E-01    10     1     8     3
  -0.658829284411E-02    10     1     8     4
   0.249605920330E-01    10     1     9     3
  -0.393121059728E-02    10     1     9     4
   0.273476621114E-01    10     1    10     1
   0.258846619460E-01    10     2     8     3
  -0.317809226309E-02    10     2     8     4
   0.298062217894E-01    10     2     9     3
  -0.172400892499E-02    10     2     9     4
   0.226334472608E-01    10     2    10     1
   0.274863992689E-01    10     2    10     2
   0.258846619460E-01    11     7     8     3
  -0.317809226309E-02    11     7     8     4
   0.146059341588E-01    11     7     9     3
  -0.130671647418E-02    11     7     9     4
   0.226334472612E-01    11     7    10     1
   0.136018135366E-01    11     7    10     2
   0.274863992689E-01    11     7    11     7
   0.279581054031E-01    12     5     8     3
  -0.464239447894E-02    12     5     8     4
   0.158754543182E-01    12     5     9     3
  -0.186139133122E-02    12     5     9     4
   0.249605920330E-01    12     5    10     1
   0.146059341588E-01    12     5    10     2
   0.298062217894E-01    12     5    11     7
   0.329080036698E-01    12     5    12     5
  -0.361032509397E-02    12     6     8     3
   0.584430260939E-02    12     6     8     4
  -0.186139133122E-02    12     6     9     3
   0.209609181296E-02    12     6     9     4
  -0.393121059728E-02    12     6    10     1
  -0.130671647418E-02    12     6    10     2
  -0.172400892499E-02    12     6    11     7
  -0.307074362090E-02    12     6    12     5
   0.594997911885E-02    12     6    12     6
   0.352423385456E-01     8     5     8     5
  -0.705368051346E-02     8     6     8     5
   0.989915333914E-02     8     6     8     6
  -0.279581053993E-01     9     5     8     5
   0.464239447289E-02     9     5     8     6
   0.329080036698E-01     9     5     9     5
   0.361032508791E-02     9     6     8     5
  -0.584430259078E-02     9     6     8     6
  -0.307074362090E-02     9     6     9     5
   0.594997911885E-02     9     6     9     6
   0.258846619460E-01    10     7     8     5
  -0.317809226309E-02    10     7     8     6
  -0.146059341588E-01    10     7     9     5
   0.130671647418E-02    10     7     9     6
   0.274863992689E-01    10     7    10     7
   0.298782977267E-01    11     1     8     5
  -0.658829284411E-02    11     1     8     6
  -0.249605920330E-01    11     1     9     5
   0.393121059728E-02    11     1     9     6
   0.226334472612E-01    11     1    10     7
   0.273476621114E-01    11     1    11     1
  -0.258846619460E-01    11     2     8     5
   0.317809226309E-02    11     2     8     6
   0.298062217894E-01    11     2     9     5
  -0.172400892499E-02    11     2     9     6
  -0.136018135366E-01    11     2    10     7
  -0.226334472608E-01    11     2    11     1
   0.274863992689E-01    11     2    11     2
   0.279581054031E-01    12     3     8     5
  -0.464239447894E-02    12     3     8     6
  -0.158754543182E-01    12     3     9     5
   0.186139133122E-02    12     3     9     6
   0.298062217894E-01    12     3    10     7
   0.249605920330E-01    12     3    11     1
  -0.146059341588E-01    12     3    11     2
   0.329080036698E-01    12     3    12     3
  -0.361032509397E-02    12     4     8     5
   0.584430260939E-02    12     4     8     6
   0.186139133122E-02    12     4     9     5
  -0.209609181296E-02    12     4     9     6
  -0.172400892499E-02    12     4    10     7
  -0.393121059728E-02    12     4    11     1
   0.130671647418E-02    12     4    11     2
  -0.307074362090E-02    12     4    12     3
   0.594997911885E-02    12     4    12     4
   0.188565961820E-01     8     7     8     7
   0.357778920587E-18     9     7     8     7
   0.829047345008E-02     9     7     9     7
   0.136051140594E-01    10     5     8     7
   0.606274561110E-18    10     5     9     7
   0.107001442883E-01    10     5    10     5
  -0.627732545481E-03    10     6     8     7
   0.130313330558E-18    10     6     9     7
  -0.972150874876E-03    10     6    10     5
   0.520040074516E-02    10     6    10     6
   0.136051140594E-01    11     3     8     7
   0.606274561110E-18    11     3     9     7
   0.107001443054E-01    11     3    10     5
  -0.972150901876E-03    11     3    10     6
   0.107001442883E-01    11     3    11     3
  -0.627732545481E-03    11     4     8     7
   0.130313330558E-18    11     4     9     7
  -0.972150901876E-03    11     4    10     5
   0.520040081395E-02    11     4    10     6
  -0.972150874876E-03    11     4    11     3
   0.520040074516E-02    11     4    11     4
   0.179314437929E-01    12     1     8     7
   0.707102344825E-18    12     1     9     7
   0.136117716856E-01    12     1    10     5
  -0.185572566576E-02    12     1    10     6
   0.136117716856E-01    12     1    11     3
  -0.185572566576E-02    12     1    11     4
   0.190577769752E-01    12     1    12     1
  -0.651778436984E-18    12     2     8     7
   0.829047346059E-02    12     2     9     7
  -0.869767576684E-19    12     2    10     5
  -0.176264122673E-18    12     2    10     6
  -0.869767576684E-19    12     2    11     3
  -0.176264122673E-18    12     2    11     4
  -0.147586667503E-18    12     2    12     1
   0.829047345008E-02    12     2    12     2
   -4.45935674752         1     1     0     0
  -0.229960476216E-16     2     1     0     0
   -2.24354091382         2     2     0     0
   -3.58299548032         3     3     0     0
   0.644721260089         4     3     0     0
   -2.33294572352         4     4     0     0
   -3.58299548032         5     5     0     0
   0.644721260089         6     5     0     0
   -2.33294572352         6     6     0     0
   -2.24354091382         7     7     0     0
   -3.36998032871         8     8     0     0
  -0.892888125914E-16     9     8     0     0
   -1.76792687468         9     9     0     0
   -2.86700465511        10    10     0     0
   -2.86700465511        11    11     0     0
   -1.76792687468        12    12     0     0
   -57.9042346988      0  0  0  0
