 &FCI NORB=50 ,NELEC=50 ,MS2=0,
  ORBSYM=1,1,1,1,1,1,1,1,1,1,1,1,1,1,1,1,1,1,1,1,1,1,1,1,1,1,1,1,1,1,1,1,1,1,1,1,1,1,1,1,1,1,1,1,1,1,1,1,1,1,
  ISYM=1,
 &END
2.000000  1  1  1  1
2.000000  2  2  2  2
2.000000  3  3  3  3
2.000000  4  4  4  4
2.000000  5  5  5  5
2.000000  6  6  6  6
2.000000  7  7  7  7
2.000000  8  8  8  8
2.000000  9  9  9  9
2.000000  10  10  10  10
2.000000  11  11  11  11
2.000000  12  12  12  12
2.000000  13  13  13  13
2.000000  14  14  14  14
2.000000  15  15  15  15
2.000000  16  16  16  16
2.000000  17  17  17  17
2.000000  18  18  18  18
2.000000  19  19  19  19
2.000000  20  20  20  20
2.000000  21  21  21  21
2.000000  22  22  22  22
2.000000  23  23  23  23
2.000000  24  24  24  24
2.000000  25  25  25  25
2.000000  26  26  26  26
2.000000  27  27  27  27
2.000000  28  28  28  28
2.000000  29  29  29  29
2.000000  30  30  30  30
2.000000  31  31  31  31
2.000000  32  32  32  32
2.000000  33  33  33  33
2.000000  34  34  34  34
2.000000  35  35  35  35
2.000000  36  36  36  36
2.000000  37  37  37  37
2.000000  38  38  38  38
2.000000  39  39  39  39
2.000000  40  40  40  40
2.000000  41  41  41  41
2.000000  42  42  42  42
2.000000  43  43  43  43
2.000000  44  44  44  44
2.000000  45  45  45  45
2.000000  46  46  46  46
2.000000  47  47  47  47
2.000000  48  48  48  48
2.000000  49  49  49  49
2.000000  50  50  50  50
-1.000000  1  2  0  0
-1.000000  2  3  0  0
-1.000000  3  4  0  0
-1.000000  4  5  0  0
-1.000000  5  6  0  0
-1.000000  6  7  0  0
-1.000000  7  8  0  0
-1.000000  8  9  0  0
-1.000000  9  10  0  0
-1.000000  10  11  0  0
-1.000000  11  12  0  0
-1.000000  12  13  0  0
-1.000000  13  14  0  0
-1.000000  14  15  0  0
-1.000000  15  16  0  0
-1.000000  16  17  0  0
-1.000000  17  18  0  0
-1.000000  18  19  0  0
-1.000000  19  20  0  0
-1.000000  20  21  0  0
-1.000000  21  22  0  0
-1.000000  22  23  0  0
-1.000000  23  24  0  0
-1.000000  24  25  0  0
-1.000000  25  26  0  0
-1.000000  26  27  0  0
-1.000000  27  28  0  0
-1.000000  28  29  0  0
-1.000000  29  30  0  0
-1.000000  30  31  0  0
-1.000000  31  32  0  0
-1.000000  32  33  0  0
-1.000000  33  34  0  0
-1.000000  34  35  0  0
-1.000000  35  36  0  0
-1.000000  36  37  0  0
-1.000000  37  38  0  0
-1.000000  38  39  0  0
-1.000000  39  40  0  0
-1.000000  40  41  0  0
-1.000000  41  42  0  0
-1.000000  42  43  0  0
-1.000000  43  44  0  0
-1.000000  44  45  0  0
-1.000000  45  46  0  0
-1.000000  46  47  0  0
-1.000000  47  48  0  0
-1.000000  48  49  0  0
-1.000000  49  50  0  0
