 &FCI NORB=  10,NELEC=10,MS2=0,
  ORBSYM=1,1,1,1,1,1,1,1,1,1,
  ISYM=1,
 &END
 0.8255517462681419    1    1    1    1
 -0.01124783373448211    1    1    2    1
 0.4397896355150581    1    1    2    2
 0.002051125387358774    1    1    3    1
 -0.01170223944226761    1    1    3    2
 0.2405270686734451    1    1    3    3
 -0.0009578585705870471    1    1    4    1
 0.002412046340448215    1    1    4    2
 -0.003278742533930756    1    1    4    3
 0.162473622502936    1    1    4    4
 0.000273226394813752    1    1    5    1
 -0.000712271474084765    1    1    5    2
 0.000740138072511507    1    1    5    3
 -0.001196881849814118    1    1    5    4
 0.1226387122911434    1    1    5    5
 -7.076011416909937e-05    1    1    6    1
 0.0001869223814872211    1    1    6    2
 -0.0002333206176417168    1    1    6    3
 0.0002882740854747645    1    1    6    4
 -0.0005598539089684076    1    1    6    5
 0.09850179110035218    1    1    6    6
 1.87608654811002e-05    1    1    7    1
 -4.76627784270146e-05    1    1    7    2
 6.333978344467351e-05    1    1    7    3
 -9.734027312805986e-05    1    1    7    4
 0.0001412337101045711    1    1    7    5
 -0.0003064546348678526    1    1    7    6
 0.08230298435283011    1    1    7    7
 -4.923549563939022e-06    1    1    8    1
 1.23881807563419e-05    1    1    8    2
 -1.665569588069253e-05    1    1    8    3
 2.739458843282815e-05    1    1    8    4
 -5.00123450248893e-05    1    1    8    5
 7.978919276848778e-05    1    1    8    6
 -0.0001852396654534219    1    1    8    7
 0.07067586276446713    1    1    8    8
 1.269045107063758e-06    1    1    9    1
 -3.186353261072479e-06    1    1    9    2
 4.394115809028359e-06    1    1    9    3
 -7.329245993300324e-06    1    1    9    4
 1.425077165551212e-05    1    1    9    5
 -2.856919331526443e-05    1    1    9    6
 4.729760582479313e-05    1    1    9    7
 -0.0001130644170787145    1    1    9    8
 0.06189912096372459    1    1    9    9
 -2.899255915519214e-07    1    1   10    1
 7.226675926663513e-07    1    1   10    2
 -1.006203808786705e-06    1    1   10    3
 1.697466154872628e-06    1    1   10    4
 -3.230554863052756e-06    1    1   10    5
 6.467730809346352e-06    1    1   10    6
 -1.157364241381514e-05    1    1   10    7
 1.062085983807685e-05    1    1   10    8
 4.600499220490037e-06    1    1   10    9
 0.05470478161650585    1    1   10   10
 -0.01124783373448271    2    1    1    1
 0.009260293018316513    2    1    2    1
 -0.0086534555942451    2    1    2    2
 -0.001014003335612218    2    1    3    1
 -0.001512786631722289    2    1    3    2
 -0.0100194149722986    2    1    3    3
 0.0001946217811754533    2    1    4    1
 0.0003347710338903629    2    1    4    2
 0.0006466696609181185    2    1    4    3
 -0.002501196171497341    2    1    4    4
 -4.892578113406293e-05    2    1    5    1
 -5.146722168349911e-05    2    1    5    2
 -0.0001186863634211208    2    1    5    3
 0.0001354135132119212    2    1    5    4
 -0.0007506081561020027    2    1    5    5
 1.198692102852862e-05    2    1    6    1
 9.909708117577265e-06    2    1    6    2
 3.280536372271243e-05    2    1    6    3
 -2.752690560515796e-05    2    1    6    4
 2.973986720451249e-05    2    1    6    5
 -0.0002732043332090455    2    1    6    6
 -2.929651373005428e-06    2    1    7    1
 -2.230885112148981e-06    2    1    7    2
 -8.35070863318713e-06    2    1    7    3
 7.700794315003745e-06    2    1    7    4
 -6.397038875246861e-06    2    1    7    5
 8.452609929048917e-06    2    1    7    6
 -0.0001078199735977596    2    1    7    7
 7.337798152859299e-07    2    1    8    1
 5.06913596576036e-07    2    1    8    2
 2.055162786369398e-06    2    1    8    3
 -1.961534735613343e-06    2    1    8    4
 1.88383017864025e-06    2    1    8    5
 -1.893973503313091e-06    2    1    8    6
 2.978032695614371e-06    2    1    8    7
 -4.045621542293645e-05    2    1    8    8
 -1.840713657566477e-07    2    1    9    1
 -1.180833679835577e-07    2    1    9    2
 -5.145018973158477e-07    2    1    9    3
 4.846720645905314e-07    2    1    9    4
 -4.857456650624796e-07    2    1    9    5
 5.809457546878893e-07    2    1    9    6
 -6.791888995788277e-07    2    1    9    7
 1.196068355464518e-06    2    1    9    8
 -1.017798838113198e-05    2    1    9    9
 4.126796676036982e-08    2    1   10    1
 2.54218762933564e-08    2    1   10    2
 1.155103369739778e-07    2    1   10    3
 -1.088419575061149e-07    2    1   10    4
 1.082546618264651e-07    2    1   10    5
 -1.349897782232003e-07    2    1   10    6
 1.866168439623996e-07    2    1   10    7
 -2.236189494605361e-07    2    1   10    8
 3.839684533275653e-07    2    1   10    9
 4.59908344074786e-06    2    1   10   10
 0.4397896355150581    2    2    1    1
 -0.008653455594245033    2    2    2    1
 0.8880749863905356    2    2    2    2
 -0.006290579937917629    2    2    3    1
 -0.01369128103488653    2    2    3    2
 0.458987122487165    2    2    3    3
 0.001253071459186918    2    2    4    1
 0.002547784281770874    2    2    4    2
 -0.01255348847582124    2    2    4    3
 0.2474325270560367    2    2    4    4
 -0.000211591861636419    2    2    5    1
 -0.00114775311075508    2    2    5    2
 0.002580091700078545    2    2    5    3
 -0.003496360658624614    2    2    5    4
 0.1657218513721744    2    2    5    5
 4.125168097036673e-05    2    2    6    1
 0.0003291991564095938    2    2    6    2
 -0.0007619505656544595    2    2    6    3
 0.0007864633145989099    2    2    6    4
 -0.001258490653834961    2    2    6    5
 0.1245077665173906    2    2    6    6
 -8.697825425020166e-06    2    2    7    1
 -8.546551770203251e-05    2    2    7    2
 0.0001999201695169771    2    2    7    3
 -0.0002470127120367477    2    2    7    4
 0.0003021855480326724    2    2    7    5
 -0.0005824204073694444    2    2    7    6
 0.09971464372797162    2    2    7    7
 1.871762277684061e-06    2    2    8    1
 2.262542033925325e-05    2    2    8    2
 -5.090726506498507e-05    2    2    8    3
 6.687381011219329e-05    2    2    8    4
 -0.0001016090655629718    2    2    8    5
 0.000146294736204186    2    2    8    6
 -0.0003156769576490961    2    2    8    7
 0.08315033442528781    2    2    8    8
 -4.154456702789346e-07    2    2    9    1
 -5.886095639133793e-06    2    2    9    2
 1.309870724373462e-05    2    2    9    3
 -1.736501389028289e-05    2    2    9    4
 2.815720332503579e-05    2    2    9    5
 -5.070037529447968e-05    2    2    9    6
 7.902574020179172e-05    2    2    9    7
 -0.0001802330761985519    2    2    9    8
 0.07126721352640751    2    2    9    9
 8.634440353273256e-08    2    2   10    1
 1.343078650203354e-06    2    2   10    2
 -2.973943333230419e-06    2    2   10    3
 3.988087529090813e-06    2    2   10    4
 -6.387781343915402e-06    2    2   10    5
 1.166130906776329e-05    2    2   10    6
 -2.022249662094442e-05    2    2   10    7
 2.112090491146685e-05    2    2   10    8
 -1.017604238304909e-05    2    2   10    9
 0.06189907685578084    2    2   10   10
 0.002051125387358813    3    1    1    1
 -0.001014003335612275    3    1    2    1
 -0.006290579937917489    3    1    2    2
 0.0003970362661523573    3    1    3    1
 -0.0009184555629069256    3    1    3    2
 0.001774995806190047    3    1    3    3
 -5.885964474327848e-05    3    1    4    1
 2.672747041650682e-05    3    1    4    2
 0.0003140711462854918    3    1    4    3
 0.002098235919707123    3    1    4    4
 1.18541389132068e-05    3    1    5    1
 4.437667603098255e-06    3    1    5    2
 -6.906149649662969e-05    3    1    5    3
 -0.0001198103415399101    3    1    5    4
 0.00059526799634856    3    1    5    5
 -2.866320529567657e-06    3    1    6    1
 -7.301257045252967e-07    3    1    6    2
 1.101514422770208e-05    3    1    6    3
 2.210775268337972e-05    3    1    6    4
 -2.814831296831497e-05    3    1    6    5
 0.0002040831804311217    3    1    6    6
 7.034223084368786e-07    3    1    7    1
 1.374919493637553e-07    3    1    7    2
 -2.161683351612831e-06    3    1    7    3
 -6.25859198028852e-06    3    1    7    4
 5.769555770768555e-06    3    1    7    5
 -6.720464511877649e-06    3    1    7    6
 8.628430919930897e-05    3    1    7    7
 -1.736325161936289e-07    3    1    8    1
 -4.270515357165292e-08    3    1    8    2
 4.872966974972257e-07    3    1    8    3
 1.604718514607234e-06    3    1    8    4
 -1.640590066444503e-06    3    1    8    5
 1.462817969260298e-06    3    1    8    6
 -2.061346277688884e-06    3    1    8    7
 4.135910946261074e-05    3    1    8    8
 4.321259877744957e-08    3    1    9    1
 1.118748088907872e-08    3    1    9    2
 -1.105347433884094e-07    3    1    9    3
 -3.934181801663065e-07    3    1    9    4
 4.173997939734953e-07    3    1    9    5
 -4.345914957884537e-07    3    1    9    6
 4.623903034817809e-07    3    1    9    7
 -7.673358213886569e-07    3    1    9    8
 2.112691953144612e-05    3    1    9    9
 -9.659729119868984e-09    3    1   10    1
 -2.497656402390415e-09    3    1   10    2
 2.318255083947945e-08    3    1   10    3
 8.795339961875455e-08    3    1   10    4
 -9.206684801152468e-08    3    1   10    5
 9.978750228538586e-08    3    1   10    6
 -1.24228617350313e-07    3    1   10    7
 1.396203412697816e-07    3    1   10    8
 -2.236299188477921e-07    3    1   10    9
 1.062531762452659e-05    3    1   10   10
 -0.01170223944226725    3    2    1    1
 -0.001512786631722364    3    2    2    1
 -0.01369128103488698    3    2    2    2
 -0.0009184555629068008    3    2    3    1
 0.01021526784227451    3    2    3    2
 -0.01347724637588918    3    2    3    3
 7.635943137417389e-05    3    2    4    1
 -0.001057870496842293    3    2    4    2
 -0.001465119703779797    3    2    4    3
 -0.01242215882760514    3    2    4    4
 -1.033929341459737e-05    3    2    5    1
 0.0002021122282050932    3    2    5    2
 0.000328862156441266    3    2    5    3
 0.000750692632760959    3    2    5    4
 -0.003437965800550088    3    2    5    5
 2.96882239005347e-06    3    2    6    1
 -5.179865803241512e-05    3    2    6    2
 -4.555770728447995e-05    3    2    6    3
 -0.0001391066764639467    3    2    6    4
 0.0001613363236263686    3    2    6    5
 -0.001225546160605785    3    2    6    6
 -8.032099932927423e-07    3    2    7    1
 1.279030805884354e-05    3    2    7    2
 8.055345637240684e-06    3    2    7    3
 3.867188958956806e-05    3    2    7    4
 -3.3096159077388e-05    3    2    7    5
 3.743993510876709e-05    3    2    7    6
 -0.0005614392781701823    3    2    7    7
 2.00858225828774e-07    3    2    8    1
 -3.135715476586308e-06    3    2    8    2
 -1.740263415280365e-06    3    2    8    3
 -9.862682622531549e-06    3    2    8    4
 9.360572370975118e-06    3    2    8    5
 -8.157682799686061e-06    3    2    8    6
 1.144125083685394e-05    3    2    8    7
 -0.0003020792724136993    3    2    8    8
 -5.078130060395312e-08    3    2    9    1
 7.813018458952958e-07    3    2    9    2
 3.726588852945723e-07    3    2    9    3
 2.41354713126908e-06    3    2    9    4
 -2.378103401884017e-06    3    2    9    5
 2.422291090829202e-06    3    2    9    6
 -2.572514164738494e-06    3    2    9    7
 4.297341386964648e-06    3    2    9    8
 -0.0001802332586809616    3    2    9    9
 1.151668697202146e-08    3    2   10    1
 -1.747958221805001e-07    3    2   10    2
 -7.464510876106422e-08    3    2   10    3
 -5.386087815455454e-07    3    2   10    4
 5.241747425109012e-07    3    2   10    5
 -5.555162191036254e-07    3    2   10    6
 6.885990414151519e-07    3    2   10    7
 -7.672798401041791e-07    3    2   10    8
 1.196052753373704e-06    3    2   10    9
 -0.0001130642669116993    3    2   10   10
 0.240527068673445    3    3    1    1
 -0.01001941497229844    3    3    2    1
 0.4589871224871649    3    3    2    2
 0.001774995806189871    3    3    3    1
 -0.01347724637588886    3    3    3    2
 0.8917026445133998    3    3    3    3
 0.001194308679242857    3    3    4    1
 -0.006164655295451165    3    3    4    2
 -0.01382694795629748    3    3    4    3
 0.4600520167970098    3    3    4    4
 -0.0002786224907417569    3    3    5    1
 0.00122673817163432    3    3    5    2
 0.002577516929460819    3    3    5    3
 -0.01259783439766347    3    3    5    4
 0.2478253815185749    3    3    5    5
 5.295359990621927e-05    3    3    6    1
 -0.0001972487209420058    3    3    6    2
 -0.001159767120858798    3    3    6    3
 0.002588857196778261    3    3    6    4
 -0.003508397190237935    3    3    6    5
 0.165909982146972    3    3    6    6
 -1.115579642927988e-05    3    3    7    1
 3.67622410481083e-05    3    3    7    2
 0.0003327275420569067    3    3    7    3
 -0.0007645162194292275    3    3    7    4
 0.0007889283753463736    3    3    7    5
 -0.00126177232416134    3    3    7    6
 0.124616952315284    3    3    7    7
 2.48678204598122e-06    3    3    8    1
 -7.4346560137084e-06    3    3    8    2
 -8.635294534237369e-05    3    3    8    3
 0.0002004586995118262    3    3    8    4
 -0.0002475311106160495    3    3    8    5
 0.0003024320121014806    3    3    8    6
 -0.000582253492673777    3    3    8    7
 0.09978202638487164    3    3    8    8
 -5.612479053369348e-07    3    3    9    1
 1.514344452531976e-06    3    3    9    2
 2.264762885542789e-05    3    3    9    3
 -5.055399976716312e-05    3    3    9    4
 6.624908582916274e-05    3    3    9    5
 -0.0001000751861111932    3    3    9    6
 0.0001418179086425265    3    3    9    7
 -0.0003020797472540828    3    3    9    8
 0.08315039847836772    3    3    9    9
 1.180598021942404e-07    3    3   10    1
 -2.951968298244726e-07    3    3   10    2
 -5.207454207213909e-06    3    3   10    3
 1.146563571336943e-05    3    3   10    4
 -1.49071550811057e-05    3    3   10    5
 2.314629618036882e-05    3    3   10    6
 -3.728281221601723e-05    3    3   10    7
 4.135094284006676e-05    3    3   10    8
 -4.045376347120572e-05    3    3   10    9
 0.07067585150325728    3    3   10   10
 -0.0009578585705870384    4    1    1    1
 0.0001946217811754572    4    1    2    1
 0.001253071459186901    4    1    2    2
 -5.885964474327539e-05    4    1    3    1
 7.635943137419924e-05    4    1    3    2
 0.001194308679242797    4    1    3    3
 2.139786352785173e-05    4    1    4    1
 -5.640944770052683e-05    4    1    4    2
 0.000175474234357617    4    1    4    3
 -0.0009577045967090517    4    1    4    4
 -3.30437690048231e-06    4    1    5    1
 3.954003781650707e-06    4    1    5    2
 3.785284372737582e-06    4    1    5    3
 -4.199680429605703e-05    4    1    5    4
 -0.0006440364703053427    4    1    5    5
 6.970655602630486e-07    4    1    6    1
 -4.409150134671814e-07    4    1    6    2
 -2.785038033758974e-06    4    1    6    3
 1.013156419735216e-05    4    1    6    4
 3.391387760287779e-05    4    1    6    5
 -0.0002006639450489774    4    1    6    6
 -1.734418143463963e-07    4    1    7    1
 1.183594271453641e-07    4    1    7    2
 5.213475555179709e-07    4    1    7    3
 -9.200779761354551e-07    4    1    7    4
 -6.420159735281478e-06    4    1    7    5
 8.16881551774299e-06    4    1    7    6
 -7.801729789122264e-05    4    1    7    7
 4.334822071468518e-08    4    1    8    1
 -2.889562258370299e-08    4    1    8    2
 -1.10820741561875e-07    4    1    8    3
 8.422232014511625e-08    4    1    8    4
 1.827403765499379e-06    4    1    8    5
 -1.700325531187226e-06    4    1    8    6
 2.105939081411919e-06    4    1    8    7
 -3.728319365921378e-05    4    1    8    8
 -1.075742742665738e-08    4    1    9    1
 6.697441077865407e-09    4    1    9    2
 2.785192648760255e-08    4    1    9    3
 -9.818012182288112e-09    4    1    9    4
 -4.655626860489569e-07    4    1    9    5
 4.870011349299395e-07    4    1    9    6
 -4.595444913285869e-07    4    1    9    7
 6.886059021017337e-07    4    1    9    8
 -2.022278960709036e-05    4    1    9    9
 2.404336870443044e-09    4    1   10    1
 -1.460344160687855e-09    4    1   10    2
 -6.097118244465392e-09    4    1   10    3
 -1.119135761128778e-11    4    1   10    4
 1.019220218727908e-07    4    1   10    5
 -1.105399670433486e-07    4    1   10    6
 1.202906741330486e-07    4    1   10    7
 -1.242220890436911e-07    4    1   10    8
 1.866165973675949e-07    4    1   10    9
 -1.157379466834585e-05    4    1   10   10
 0.002412046340448101    4    2    1    1
 0.0003347710338904174    4    2    2    1
 0.002547784281770933    4    2    2    2
 2.672747041646374e-05    4    2    3    1
 -0.001057870496842309    4    2    3    2
 -0.00616465529545086    4    2    3    3
 -5.640944770051848e-05    4    2    4    1
 0.0004487604318545942    4    2    4    2
 -0.00104998474382915    4    2    4    3
 0.00251114383154451    4    2    4    4
 5.97666282370977e-06    4    2    5    1
 -6.433901290440889e-05    4    2    5    2
 3.264782224862215e-05    4    2    5    3
 0.000327764447077028    4    2    5    4
 0.002550194920439144    4    2    5    5
 -9.798036477915755e-07    4    2    6    1
 1.282280185310767e-05    4    2    6    2
 3.767350729978038e-06    4    2    6    3
 -7.255318256737827e-05    4    2    6    4
 -0.0001389715533509137    4    2    6    5
 0.0007733003737556001    4    2    6    6
 2.525113283601228e-07    4    2    7    1
 -3.121833115094218e-06    4    2    7    2
 -4.648037105776502e-07    4    2    7    3
 1.100149970657131e-05    4    2    7    4
 2.581796016102288e-05    4    2    7    5
 -3.309027436717589e-05    4    2    7    6
 0.0002947719655031707    4    2    7    7
 -6.367327888796783e-08    4    2    8    1
 7.690388682511428e-07    4    2    8    2
 6.178085628950974e-08    4    2    8    3
 -2.07785086134428e-06    4    2    8    4
 -7.328655338644723e-06    4    2    8    5
 6.820615658402589e-06    4    2    8    6
 -8.164278628172513e-06    4    2    8    7
 0.0001418068749923286    4    2    8    8
 1.556554946926814e-08    4    2    9    1
 -1.885853541691916e-07    4    2    9    2
 -2.321522468756778e-08    4    2    9    3
 4.568947688011205e-07    4    2    9    4
 1.866378887859163e-06    4    2    9    5
 -1.936158694719583e-06    4    2    9    6
 1.768748799584596e-06    4    2    9    7
 -2.572411798015036e-06    4    2    9    8
 7.901847379069852e-05    4    2    9    9
 -3.465913864406087e-09    4    2   10    1
 4.184608770832641e-08    4    2   10    2
 5.492314977124188e-09    4    2   10    3
 -9.139225886951229e-08    4    2   10    4
 -4.0774208060816e-07    4    2   10    5
 4.382007264054542e-07    4    2   10    6
 -4.595242238555185e-07    4    2   10    7
 4.623441804596962e-07    4    2   10    8
 -6.79155171755026e-07    4    2   10    9
 4.729227532483591e-05    4    2   10   10
 -0.003278742533930755    4    3    1    1
 0.0006466696609181005    4    3    2    1
 -0.01255348847582146    4    3    2    2
 0.0003140711462855291    4    3    3    1
 -0.00146511970377974    4    3    3    2
 -0.01382694795629848    4    3    3    3
 0.00017547423435762    4    3    4    1
 -0.001049984743829154    4    3    4    2
 0.01027215097880432    4    3    4    3
 -0.01381234885387538    4    3    4    4
 -1.080055328060939e-05    4    3    5    1
 9.037968549154747e-05    4    3    5    2
 -0.001059498992570989    4    3    5    3
 -0.001461303568328765    4    3    5    4
 -0.01258855389003114    4    3    5    5
 9.789340731293465e-07    4    3    6    1
 -1.283821930099816e-05    4    3    6    2
 0.0002022928767601531    4    3    6    3
 0.0003283307596948163    4    3    6    4
 0.0007576624970992559    4    3    6    5
 -0.003504312388812514    4    3    6    6
 -3.509306254491824e-07    4    3    7    1
 3.638883362435509e-06    4    3    7    2
 -5.190992184959306e-05    4    3    7    3
 -4.512575884017596e-05    4    3    7    4
 -0.0001404705576562429    4    3    7    5
 0.0001631103109551492    4    3    7    6
 -0.001259636533449531    4    3    7    7
 1.017917939539587e-07    4    3    8    1
 -9.767598530364701e-07    4    3    8    2
 1.281777489053748e-05    4    3    8    3
 7.918972261093186e-06    4    3    8    4
 3.904445586230587e-05    4    3    8    5
 -3.34540381457014e-05    4    3    8    6
 3.794148384296334e-05    4    3    8    7
 -0.0005822538164300531    4    3    8    8
 -2.546840437632665e-08    4    3    9    1
 2.425053949683735e-07    4    3    9    2
 -3.11698971414137e-06    4    3    9    3
 -1.694478886147666e-06    4    3    9    4
 -9.877239269322492e-06    4    3    9    5
 9.383518337076058e-06    4    3    9    6
 -8.164560899312941e-06    4    3    9    7
 1.144127981984924e-05    4    3    9    8
 -0.0003156781057827764    4    3    9    9
 5.796370658390745e-09    4    3   10    1
 -5.44831903307848e-08    4    3   10    2
 6.915750954914839e-07    4    3   10    3
 3.269873350324754e-07    4    3   10    4
 2.151627303582828e-06    4    3   10    5
 -2.115967793554789e-06    4    3   10    6
 2.105924198780306e-06    4    3   10    7
 -2.061230559728711e-06    4    3   10    8
 2.978008443413135e-06    4    3   10    9
 -0.0001852398417360137    4    3   10   10
 0.1624736225029359    4    4    1    1
 -0.00250119617149729    4    4    2    1
 0.247432527056037    4    4    2    2
 0.002098235919707199    4    4    3    1
 -0.01242215882760564    4    4    3    2
 0.4600520167970104    4    4    3    3
 -0.0009577045967090966    4    4    4    1
 0.002511143831544692    4    4    4    2
 -0.01381234885387564    4    4    4    3
 0.8919139922302048    4    4    4    4
 -0.000186760024425159    4    4    5    1
 0.001223304712784672    4    4    5    2
 -0.006148373276836512    4    4    5    3
 -0.01383594158788285    4    4    5    4
 0.4601120792158464    4    4    5    5
 5.067551562957169e-05    4    4    6    1
 -0.0002890038051292294    4    4    6    2
 0.001223769011862624    4    4    6    3
 0.00257965920421281    4    4    6    4
 -0.01260024990032555    4    4    6    5
 0.2478487718276686    4    4    6    6
 -9.706075620901334e-06    4    4    7    1
 5.412233561274278e-05    4    4    7    2
 -0.0001960645306568761    4    4    7    3
 -0.001160450176752321    4    4    7    4
 0.002589110061668199    4    4    7    5
 -0.003508744817871882    4    4    7    6
 0.1659206090140234    4    4    7    7
 2.021047894715137e-06    4    4    8    1
 -1.124460180704463e-05    4    4    8    2
 3.639915153233362e-05    4    4    8    3
 0.0003326945974688197    4    4    8    4
 -0.00076406743335274    4    4    8    5
 0.0007880572322025994    4    4    8    6
 -0.001259631428946051    4    4    8    7
 0.1246168100349713    4    4    8    8
 -4.465408745701887e-07    4    4    9    1
 2.46531699921604e-06    4    4    9    2
 -7.309022751901171e-06    4    4    9    3
 -8.550602613607573e-05    4    4    9    4
 0.0001984146774246169    4    4    9    5
 -0.0002441440506349671    4    4    9    6
 0.0002947889272146387    4    4    9    7
 -0.0005614386278488498    4    4    9    8
 0.09971464506808707    4    4    9    9
 9.173666999956276e-08    4    4   10    1
 -5.022918926109533e-07    4    4   10    2
 1.377071409359296e-06    4    4   10    3
 1.977161399299241e-05    4    4   10    4
 -4.401373141509928e-05    4    4   10    5
 5.613180586988781e-05    4    4   10    6
 -7.801632142924919e-05    4    4   10    7
 8.627207911908463e-05    4    4   10    8
 -0.0001078161287318517    4    4   10    9
 0.08230290719849336    4    4   10   10
 0.0002732263948137489    5    1    1    1
 -4.892578113406207e-05    5    1    2    1
 -0.0002115918616364159    5    1    2    2
 1.185413891320536e-05    5    1    3    1
 -1.03392934146017e-05    5    1    3    2
 -0.0002786224907417448    5    1    3    3
 -3.304376900482499e-06    5    1    4    1
 5.976662823713043e-06    5    1    4    2
 -1.080055328061517e-05    5    1    4    3
 -0.0001867600244251583    5    1    4    4
 1.212499050225797e-06    5    1    5    1
 -3.2367791309741e-06    5    1    5    2
 1.123860950492802e-05    5    1    5    3
 -4.542893498855414e-05    5    1    5    4
 0.0002848231146774739    5    1    5    5
 -1.913050024118978e-07    5    1    6    1
 2.857026582444767e-07    5    1    6    2
 -4.630881369330404e-07    5    1    6    3
 -4.501445955823627e-07    5    1    6    4
 7.161542220100419e-06    5    1    6    5
 0.0001720613161415577    5    1    6    6
 4.179553966669496e-08    5    1    7    1
 -4.409060695311796e-08    5    1    7    2
 4.266712099550377e-09    5    1    7    3
 4.898661227221177e-07    5    1    7    4
 -1.859336083952075e-06    5    1    7    5
 -8.727479373234692e-06    5    1    7    6
 5.613251943043384e-05    5    1    7    7
 -1.056398536780849e-08    5    1    8    1
 1.135416991601241e-08    5    1    8    2
 -5.444936860395563e-09    5    1    8    3
 -7.462813632540915e-08    5    1    8    4
 6.216164171847265e-08    5    1    8    5
 1.664993436905304e-06    5    1    8    6
 -2.115989559636546e-06    5    1    8    7
 2.314648177330072e-05    5    1    8    8
 2.646529438006005e-09    5    1    9    1
 -2.817396712809517e-09    5    1    9    2
 1.521545396656557e-09    5    1    9    3
 1.360609164845219e-08    5    1    9    4
 1.981048099386491e-08    5    1    9    5
 -4.706580370280152e-07    5    1    9    6
 4.382187929274033e-07    5    1    9    7
 -5.555223811821648e-07    5    1    9    8
 1.166144338515531e-05    5    1    9    9
 -5.894558874186197e-10    5    1   10    1
 6.088199730518846e-10    5    1   10    2
 -2.734407733736278e-10    5    1   10    3
 -3.015848964412499e-09    5    1   10    4
 -6.302303039116411e-09    5    1   10    5
 1.067228364882832e-07    5    1   10    6
 -1.105402589073234e-07    5    1   10    7
 9.978341326739428e-08    5    1   10    8
 -1.349898711923868e-07    5    1   10    9
 6.467788919511858e-06    5    1   10   10
 -0.0007122714740847434    5    2    1    1
 -5.1467221683516e-05    5    2    2    1
 -0.001147753110755083    5    2    2    2
 4.437667603110905e-06    5    2    3    1
 0.0002021122282050861    5    2    3    2
 0.001226738171634275    5    2    3    3
 3.954003781650108e-06    5    2    4    1
 -6.4339012904416e-05    5    2    4    2
 9.037968549157742e-05    5    2    4    3
 0.001223304712784668    5    2    4    4
 -3.236779130973656e-06    5    2    5    1
 2.495713918470641e-05    5    2    5    2
 -6.407034325395864e-05    5    2    5    3
 0.0002002937641549756    5    2    5    4
 -0.001144814566339637    5    2    5    5
 3.254752536742812e-07    5    2    6    1
 -3.728964768504507e-06    5    2    6    2
 4.638135807453246e-06    5    2    6    3
 3.753349843730184e-06    5    2    6    4
 -4.491192157432967e-05    5    2    6    5
 -0.000755505315461329    5    2    6    6
 -5.613075996399141e-08    5    2    7    1
 7.787782766971541e-07    5    2    7    2
 -5.546111691518157e-07    5    2    7    3
 -2.946281115664759e-06    5    2    7    4
 1.091875302845526e-05    5    2    7    5
 3.871184587715967e-05    5    2    7    6
 -0.0002441443242597864    5    2    7    7
 1.472944737368943e-08    5    2    8    1
 -1.948110690356078e-07    5    2    8    2
 1.49194560357645e-07    5    2    8    3
 5.340837502925841e-07    5    2    8    4
 -8.973850657670816e-07    5    2    8    5
 -7.343721946602374e-06    5    2    8    6
 9.383486734158119e-06    5    2    8    7
 -0.0001000749466608626    5    2    8    8
 -3.726206112280395e-09    5    2    9    1
 4.844668215369021e-08    5    2    9    2
 -3.658315655714899e-08    5    2    9    3
 -1.102735354098494e-07    5    2    9    4
 5.967626749356779e-08    5    2    9    5
 2.075550874603547e-06    5    2    9    6
 -1.936211829589338e-06    5    2    9    7
 2.422287722713501e-06    5    2    9    8
 -5.070046891865327e-05    5    2    9    9
 8.213842655262569e-10    5    2   10    1
 -1.071341786347757e-08    5    2   10    2
 7.673912007278423e-09    5    2   10    3
 2.47545348746496e-08    5    2   10    4
 -3.755907608559937e-09    5    2   10    5
 -4.706514722835318e-07    5    2   10    6
 4.869959816670006e-07    5    2   10    7
 -4.345685546828878e-07    5    2   10    8
 5.809393237160751e-07    5    2   10    9
 -2.856918788835338e-05    5    2   10   10
 0.0007401380725115371    5    3    1    1
 -0.0001186863634211102    5    3    2    1
 0.002580091700078576    5    3    2    2
 -6.906149649665229e-05    5    3    3    1
 0.00032886215644131    5    3    3    2
 0.002577516929460892    5    3    3    3
 3.78528437273422e-06    5    3    4    1
 3.264782224863692e-05    5    3    4    2
 -0.001059498992571074    5    3    4    3
 -0.006148373276836384    5    3    4    4
 1.12386095049271e-05    5    3    5    1
 -6.40703432539537e-05    5    3    5    2
 0.0004520762381343953    5    3    5    3
 -0.00105893025177218    5    3    5    4
 0.002575201632530994    5    3    5    5
 -9.909838695054427e-07    5    3    6    1
 6.893105860680202e-06    5    3    6    2
 -6.461814561459632e-05    5    3    6    3
 3.292518329589087e-05    5    3    6    4
 0.0003282582832425549    5    3    6    5
 0.00258677438346143    5    3    6    6
 1.356370845977393e-07    5    3    7    1
 -1.14622065472255e-06    5    3    7    2
 1.286495547105574e-05    5    3    7    3
 3.743433535962161e-06    5    3    7    4
 -7.270928420404376e-05    5    3    7    5
 -0.0001404651329393692    5    3    7    6
 0.0007880979051507626    5    3    7    7
 -3.607920534320955e-08    5    3    8    1
 2.95078332851606e-07    5    3    8    2
 -3.132181059050797e-06    5    3    8    3
 -4.500223513685818e-07    5    3    8    4
 1.097015422968188e-05    5    3    8    5
 2.609136040030639e-05    5    3    8    6
 -3.345502481409399e-05    5    3    8    7