 &FCI NORB=  10,NELEC=10,MS2=0,
  ORBSYM=1,1,1,1,1,1,1,1,1,1,
  ISYM=1,
 &END
 0.8255513641300083    1    1    1    1
 -0.01124788185535897    1    1    2    1
 0.4397888009308866    1    1    2    2
 0.002051206987389089    1    1    3    1
 -0.01170222056553341    1    1    3    2
 0.2405271194282124    1    1    3    3
 -0.0009578571765726419    1    1    4    1
 0.002412002316398159    1    1    4    2
 -0.003278738257300678    1    1    4    3
 0.1624735497210319    1    1    4    4
 0.0002732267087042512    1    1    5    1
 -0.0007122725959481084    1    1    5    2
 0.000740153762253813    1    1    5    3
 -0.001196881471637802    1    1    5    4
 0.1226387559659883    1    1    5    5
 -7.075971975317509e-05    1    1    6    1
 0.0001869212204671496    1    1    6    2
 -0.0002333190603444499    1    1    6    3
 0.0002882632382599749    1    1    6    4
 -0.0005598478074414012    1    1    6    5
 0.0985017629970972    1    1    6    6
 1.876074376167129e-05    1    1    7    1
 -4.76623246293468e-05    1    1    7    2
 6.333910251574936e-05    1    1    7    3
 -9.733872954914228e-05    1    1    7    4
 0.0001412337700004542    1    1    7    5
 -0.0003064583610932787    1    1    7    6
 0.08230292574051648    1    1    7    7
 -4.923554407267232e-06    1    1    8    1
 1.238817721246659e-05    1    1    8    2
 -1.665573691720942e-05    1    1    8    3
 2.739462374830097e-05    1    1    8    4
 -5.00132294528577e-05    1    1    8    5
 7.97936390851152e-05    1    1    8    6
 -0.0001852397720875717    1    1    8    7
 0.07067584730492686    1    1    8    8
 1.269038729275451e-06    1    1    9    1
 -3.186335085086111e-06    1    1    9    2
 4.394097714377222e-06    1    1    9    3
 -7.329212734347615e-06    1    1    9    4
 1.425090797425437e-05    1    1    9    5
 -2.856929550387202e-05    1    1    9    6
 4.729493838169469e-05    1    1    9    7
 -0.0001130642734944976    1    1    9    8
 0.06189909546798639    1    1    9    9
 -2.899268469323369e-07    1    1   10    1
 7.226700732320698e-07    1    1   10    2
 -1.006209020636553e-06    1    1   10    3
 1.697478378701128e-06    1    1   10    4
 -3.230606632996608e-06    1    1   10    5
 6.467779803881785e-06    1    1   10    6
 -1.15737142351834e-05    1    1   10    7
 1.062303676540865e-05    1    1   10    8
 4.599941706841309e-06    1    1   10    9
 0.05470478176192325    1    1   10   10
 -0.01124788185536009    2    1    1    1
 0.00926025618826613    2    1    2    1
 -0.008653455123343172    2    1    2    2
 -0.001014003929082536    2    1    3    1
 -0.001512787178904779    2    1    3    2
 -0.01001941946618184    2    1    3    3
 0.0001946202369500502    2    1    4    1
 0.0003347714807457027    2    1    4    2
 0.0006466706713209829    2    1    4    3
 -0.002501184059071153    2    1    4    4
 -4.892594357726694e-05    2    1    5    1
 -5.146751038829988e-05    2    1    5    2
 -0.0001186879620738098    2    1    5    3
 0.0001354134724918347    2    1    5    4
 -0.0007506048100481143    2    1    5    5
 1.198685068272972e-05    2    1    6    1
 9.909626913750667e-06    2    1    6    2
 3.280522724219045e-05    2    1    6    3
 -2.752644026161772e-05    2    1    6    4
 2.973969837294774e-05    2    1    6    5
 -0.0002732009935625292    2    1    6    6
 -2.929629776234232e-06    2    1    7    1
 -2.230872873178991e-06    2    1    7    2
 -8.350662002254101e-06    2    1    7    3
 7.700716364164651e-06    2    1    7    4
 -6.39702650192106e-06    2    1    7    5
 8.452600672477593e-06    2    1    7    6
 -0.0001078175093374465    2    1    7    7
 7.337806711300146e-07    2    1    8    1
 5.069155263904036e-07    2    1    8    2
 2.055171447676661e-06    2    1    8    3
 -1.961534417312245e-06    2    1    8    4
 1.883841678209531e-06    2    1    8    5
 -1.894002528472827e-06    2    1    8    6
 2.97801420460794e-06    2    1    8    7
 -4.045467386700852e-05    2    1    8    8
 -1.840704408909638e-07    2    1    9    1
 -1.180828955060955e-07    2    1    9    2
 -5.145005879701336e-07    2    1    9    3
 4.846689602222303e-07    2    1    9    4
 -4.857452302636375e-07    2    1    9    5
 5.809422986169432e-07    2    1    9    6
 -6.791706220050613e-07    2    1    9    7
 1.196057813456043e-06    2    1    9    8
 -1.017680658609773e-05    2    1    9    9
 4.126812841396354e-08    2    1   10    1
 2.542200184149774e-08    2    1   10    2
 1.155110685396965e-07    2    1   10    3
 -1.08842286017273e-07    2    1   10    4
 1.082553121275314e-07    2    1   10    5
 -1.349897478496071e-07    2    1   10    6
 1.86616413777757e-07    2    1   10    7
 -2.236238813000614e-07    2    1   10    8
 3.839676256793924e-07    2    1   10    9
 4.599941706841724e-06    2    1   10   10
 0.4397888009308859    2    2    1    1
 -0.008653455123341378    2    2    2    1
 0.8880751156711907    2    2    2    2
 -0.00629058952867313    2    2    3    1
 -0.01369125356960851    2    2    3    2
 0.4589881949132463    2    2    3    3
 0.001253073902398576    2    2    4    1
 0.002547690313268699    2    2    4    2
 -0.01255352546659603    2    2    4    3
 0.247432654357854    2    2    4    4
 -0.0002115940049575049    2    2    5    1
 -0.001147755929489266    2    2    5    2
 0.002580141658454316    2    2    5    3
 -0.003496370656031786    2    2    5    4
 0.1657220645507775    2    2    5    5
 4.12516280570181e-05    2    2    6    1
 0.000329198097595206    2    2    6    2
 -0.0007619485859457664    2    2    6    3
 0.0007864437805630647    2    2    6    4
 -0.001258482986176179    2    2    6    5
 0.1245077962666711    2    2    6    6
 -8.697840591469649e-06    2    2    7    1
 -8.546486750176146e-05    2    2    7    2
 0.0001999190973497597    2    2    7    3
 -0.0002470101703615856    2    2    7    4
 0.0003021862463473359    2    2    7    5
 -0.0005824266995903753    2    2    7    6
 0.09971460563925973    2    2    7    7
 1.871785923824013e-06    2    2    8    1
 2.262545411388998e-05    2    2    8    2
 -5.090756634739896e-05    2    2    8    3
 6.687404836295616e-05    2    2    8    4
 -0.0001016107148134376    2    2    8    5
 0.0001463015411964995    2    2    8    6
 -0.0003156774126421114    2    2    8    7
 0.08315034630728646    2    2    8    8
 -4.154481411884736e-07    2    2    9    1
 -5.886074565583005e-06    2    2    9    2
 1.309869736425396e-05    2    2    9    3
 -1.736497222452923e-05    2    2    9    4
 2.815744723313216e-05    2    2    9    5
 -5.070055499942899e-05    2    2    9    6
 7.902207153332466e-05    2    2    9    7
 -0.0001802330131470732    2    2    9    8
 0.07126720415643849    2    2    9    9
 8.634568322961939e-08    2    2   10    1
 1.343086040583497e-06    2    2   10    2
 -2.973967943576163e-06    2    2   10    3
 3.988120700623794e-06    2    2   10    4
 -6.387877815590854e-06    2    2   10    5
 1.166140079188581e-05    2    2   10    6
 -2.022263118269859e-05    2    2   10    7
 2.112383304110273e-05    2    2   10    8
 -1.017680658608959e-05    2    2   10    9
 0.06189909546798646    2    2   10   10
 0.002051206987389336    3    1    1    1
 -0.001014003929082639    3    1    2    1
 -0.006290589528672313    3    1    2    2
 0.0003970364985853735    3    1    3    1
 -0.0009184552582547094    3    1    3    2
 0.001774893887665365    3    1    3    3
 -5.885978319651082e-05    3    1    4    1
 2.67292676507751e-05    3    1    4    2
 0.000314072134129526    3    1    4    3
 0.002098186411018206    3    1    4    4
 1.185429942846776e-05    3    1    5    1
 4.437375754696302e-06    3    1    5    2
 -6.906171873991154e-05    3    1    5    3
 -0.0001198083785668432    3    1    5    4
 0.0005952505905870761    3    1    5    5
 -2.866324111514458e-06    3    1    6    1
 -7.300966408237942e-07    3    1    6    2
 1.101521327576392e-05    3    1    6    3
 2.210700032666427e-05    3    1    6    4
 -2.81477628538337e-05    3    1    6    5
 0.0002040730917713584    3    1    6    6
 7.034225141696758e-07    3    1    7    1
 1.374842038144406e-07    3    1    7    2
 -2.161718601357147e-06    3    1    7    3
 -6.258427056398799e-06    3    1    7    4
 5.769456561766858e-06    3    1    7    5
 -6.720326410175239e-06    3    1    7    6
 8.627792055136106e-05    3    1    7    7
 -1.736341198964308e-07    3    1    8    1
 -4.270330361392856e-08    3    1    8    2
 4.873093423725891e-07    3    1    8    3
 1.60469189946794e-06    3    1    8    4
 -1.640573067382201e-06    3    1    8    5
 1.462808794449359e-06    3    1    8    6
 -2.061283623021088e-06    3    1    8    7
 4.135489043995033e-05    3    1    8    8
 4.321271521552466e-08    3    1    9    1
 1.118703713793247e-08    3    1    9    2
 -1.105371636706876e-07    3    1    9    3
 -3.934091561714153e-07    3    1    9    4
 4.173923296543727e-07    3    1    9    5
 -4.345796406058676e-07    3    1    9    6
 4.623662261171585e-07    3    1    9    7
 -7.673061163751434e-07    3    1    9    8
 2.112383304095593e-05    3    1    9    9
 -9.659841307159992e-09    3    1   10    1
 -2.497582970316487e-09    3    1   10    2
 2.318332435466808e-08    3    1   10    3
 8.795220347654373e-08    3    1   10    4
 -9.206583856215457e-08    3    1   10    5
 9.978535990862764e-08    3    1   10    6
 -1.242251332606963e-07    3    1   10    7
 1.396199797381235e-07    3    1   10    8
 -2.236238813038522e-07    3    1   10    9
 1.062303676533864e-05    3    1   10   10
 -0.01170222056553278    3    2    1    1
 -0.001512787178904823    3    2    2    1
 -0.01369125356961013    3    2    2    2
 -0.0009184552582545735    3    2    3    1
 0.01021531520441236    3    2    3    2
 -0.0134772184620542    3    2    3    3
 7.635954662798038e-05    3    2    4    1
 -0.001057872108104428    3    2    4    2
 -0.001465120678529389    3    2    4    3
 -0.01242214665991537    3    2    4    4
 -1.033941698528625e-05    3    2    5    1
 0.0002021144775500471    3    2    5    2
 0.0003288622381325292    3    2    5    3
 0.0007506925263574157    3    2    5    4
 -0.003437976435469652    3    2    5    5
 2.968797463509146e-06    3    2    6    1
 -5.179853054163438e-05    3    2    6    2
 -4.555755821696008e-05    3    2    6    3
 -0.0001391044531735321    3    2    6    4
 0.0001613360769877631    3    2    6    5
 -0.001225545631383232    3    2    6    6
 -8.032030019008586e-07    3    2    7    1
 1.279026555001188e-05    3    2    7    2
 8.055376199857366e-06    3    2    7    3
 3.867156021418389e-05    3    2    7    4
 -3.309621549241932e-05    3    2    7    5
 3.744002574213314e-05    3    2    7    6
 -0.0005614379659129647    3    2    7    7
 2.00858399748912e-07    3    2    8    1
 -3.135734437135871e-06    3    2    8    2
 -1.740280496865632e-06    3    2    8    3
 -9.862695728744755e-06    3    2    8    4
 9.360662992433171e-06    3    2    8    5
 -8.157832196710454e-06    3    2    8    6
 1.144124284935961e-05    3    2    8    7
 -0.0003020791358578086    3    2    8    8
 -5.078100175140791e-08    3    2    9    1
 7.813014313267167e-07    3    2    9    2
 3.726598093619659e-07    3    2    9    3
 2.413535548309423e-06    3    2    9    4
 -2.378109871727774e-06    3    2    9    5
 2.422287938501901e-06    3    2    9    6
 -2.572458358889492e-06    3    2    9    7
 4.297334030523651e-06    3    2    9    8
 -0.0001802330131467986    3    2    9    9
 1.151672342038717e-08    3    2   10    1
 -1.747972911863865e-07    3    2   10    2
 -7.46460055744428e-08    3    2   10    3
 -5.386113006157803e-07    3    2   10    4
 5.241799756499312e-07    3    2   10    5
 -5.555189123250327e-07    3    2   10    6
 6.886015190133919e-07    3    2   10    7
 -7.673061163821308e-07    3    2   10    8
 1.196057813465668e-06    3    2   10    9
 -0.0001130642734944245    3    2   10   10
 0.2405271194282123    3    3    1    1
 -0.01001941946618194    3    3    2    1
 0.4589881949132457    3    3    2    2
 0.001774893887664949    3    3    3    1
 -0.01347721846205225    3    3    3    2
 0.891702799269727    3    3    3    3
 0.001194310994317549    3    3    4    1
 -0.006164662762292864    3    3    4    2
 -0.01382699448963148    3    3    4    3
 0.4600513340946111    3    3    4    4
 -0.0002786230635270893    3    3    5    1
 0.001226739303178969    3    3    5    2
 0.00257760880415096    3    3    5    3
 -0.01259781970755584    3    3    5    4
 0.2478255033542117    3    3    5    5
 5.295346240434805e-05    3    3    6    1
 -0.0001972472490953266    3    3    6    2
 -0.00115976204033209    3    3    6    3
 0.002588800411245737    3    3    6    4
 -0.003508374664257002    3    3    6    5
 0.1659098764055799    3    3    6    6
 -1.115580550917686e-05    3    3    7    1
 3.67621659893061e-05    3    3    7    2
 0.0003327246093061099    3    3    7    3
 -0.0007645074627543193    3    3    7    4
 0.0007889280630970196    3    3    7    5
 -0.001261779430220146    3    3    7    6
 0.1246168042093589    3    3    7    7
 2.486803317111196e-06    3    3    8    1
 -7.434679971624291e-06    3    3    8    2
 -8.635321700260342e-05    3    3    8    3
 0.000200458745270302    3    3    8    4
 -0.0002475338072980568    3    3    8    5
 0.0003024423058935766    3    3    8    6
 -0.0005822530468466518    3    3    8    7
 0.09978198674711843    3    3    8    8
 -5.612489875776681e-07    3    3    9    1
 1.514333108717555e-06    3    3    9    2
 2.264755319136393e-05    3    3    9    3
 -5.055370939796638e-05    3    3    9    4
 6.624933950892034e-05    3    3    9    5
 -0.0001000751995295504    3    3    9    6
 0.0001418122470090013    3    3    9    7
 -0.0003020791358579029    3    3    9    8
 0.08315034630728568    3    3    9    9
 1.180610874761022e-07    3    3   10    1
 -2.951967832381879e-07    3    3   10    2
 -5.207483412535143e-06    3    3   10    3
 1.146568521553647e-05    3    3   10    4
 -1.490731228078086e-05    3    3   10    5
 2.31464108818021e-05    3    3   10    6
 -3.728296605009737e-05    3    3   10    7
 4.135489044009751e-05    3    3   10    8
 -4.045467386712445e-05    3    3   10    9
 0.07067584730492626    3    3   10   10
 -0.0009578571765726716    4    1    1    1
 0.0001946202369500697    4    1    2    1
 0.001253073902398428    4    1    2    2
 -5.885978319651252e-05    4    1    3    1
 7.63595466280213e-05    4    1    3    2
 0.001194310994317389    4    1    3    3
 2.139770861327663e-05    4    1    4    1
 -5.640956308344224e-05    4    1    4    2
 0.0001754723478331356    4    1    4    3
 -0.0009577023974502191    4    1    4    4
 -3.30437968395436e-06    4    1    5    1
 3.954007029743309e-06    4    1    5    2
 3.785628653707396e-06    4    1    5    3
 -4.199667120974802e-05    4    1    5    4
 -0.0006440358391236593    4    1    5    5
 6.970585193520153e-07    4    1    6    1
 -4.409008920398496e-07    4    1    6    2
 -2.785081890229572e-06    4    1    6    3
 1.013162006488018e-05    4    1    6    4
 3.391373004608145e-05    4    1    6    5
 -0.0002006628917675844    4    1    6    6
 -1.734401802904689e-07    4    1    7    1
 1.183578014505094e-07    4    1    7    2
 5.213523941060875e-07    4    1    7    3
 -9.200823327122162e-07    4    1    7    4
 -6.420152165065908e-06    4    1    7    5
 8.168791469105927e-06    4    1    7    6
 -7.80166847319599e-05    4    1    7    7
 4.334819267537888e-08    4    1    8    1
 -2.889556805011273e-08    4    1    8    2
 -1.108230158951791e-07    4    1    8    3
 8.422283152074905e-08    4    1    8    4
 1.82741475219592e-06    4    1    8    5
 -1.700344442463364e-06    4    1    8    6
 2.105927640280994e-06    4    1    8    7
 -3.728296605013245e-05    4    1    8    8
 -1.075735146811993e-08    4    1    9    1
 6.697372294657981e-09    4    1    9    2
 2.78522593506583e-08    4    1    9    3
 -9.817725133086659e-09    4    1    9    4
 -4.655621358358084e-07    4    1    9    5
 4.869980800974104e-07    4    1    9    6
 -4.595335878122692e-07    4    1    9    7
 6.886015190074966e-07    4    1    9    8
 -2.022263118271625e-05    4    1    9    9
 2.404341578026136e-09    4    1   10    1
 -1.460342881559051e-09    4    1   10    2
 -6.097241653275944e-09    4    1   10    3
 -1.12735992135613e-11    4    1   10    4
 1.019226313258192e-07    4    1   10    5
 -1.105400038495005e-07    4    1   10    6
 1.202905303318899e-07    4    1   10    7
 -1.242251332599187e-07    4    1   10    8
 1.866164137770875e-07    4    1   10    9
 -1.157371423520824e-05    4    1   10   10
 0.002412002316397983    4    2    1    1
 0.0003347714807456801    4    2    2    1
 0.00254769031326899    4    2    2    2
 2.672926765076849e-05    4    2    3    1
 -0.001057872108104525    4    2    3    2
 -0.006164662762292011    4    2    3    3
 -5.640956308344086e-05    4    2    4    1
 0.0004487612405474683    4    2    4    2
 -0.001049985827058859    4    2    4    3
 0.002511236715640181    4    2    4    4
 5.976673055497794e-06    4    2    5    1
 -6.433909215848758e-05    4    2    5    2
 3.264606460165616e-05    4    2    5    3
 0.0003277644870705251    4    2    5    4
 0.002550245409923302    4    2    5    5
 -9.797898111730223e-07    4    2    6    1
 1.282263995140336e-05    4    2    6    2
 3.76770993976368e-06    4    2    6    3
 -7.255329280895351e-05    4    2    6    4
 -0.0001389733052778633    4    2    6    5
 0.0007733165999998899    4    2    6    6
 2.525091911399426e-07    4    2    7    1
 -3.121800811805561e-06    4    2    7    2
 -4.648441193097886e-07    4    2    7    3
 1.100141188066802e-05    4    2    7    4
 2.581838787811101e-05    4    2    7    5
 -3.309073613189607e-05    4    2    7    6
 0.0002947799099318906    4    2    7    7
 -6.367332791549876e-08    4    2    8    1
 7.690380107207767e-07    4    2    8    2
 6.179080358414991e-08    4    2    8    3
 -2.077833110735552e-06    4    2    8    4
 -7.328829400666659e-06    4    2    8    5
 6.820809080499871e-06    4    2    8    6
 -8.164400134765528e-06    4    2    8    7
 0.0001418122470091249    4    2    8    8
 1.556545968851842e-08    4    2    9    1
 -1.885838964076849e-07    4    2    9    2
 -2.321728548843817e-08    4    2    9    3
 4.568851882471682e-07    4    2    9    4
 1.866409839659595e-06    4    2    9    5
 -1.936182161808387e-06    4    2    9    6
 1.768744974785834e-06    4    2    9    7
 -2.572458358877024e-06    4    2    9    8
 7.902207153337229e-05    4    2    9    9
 -3.465925909962391e-09    4    2   10    1
 4.184614255304708e-08    4    2   10    2
 5.492771689837237e-09    4    2   10    3
 -9.139075586964348e-08    4    2   10    4
 -4.077518137176652e-07    4    2   10    5
 4.382090636365049e-07    4    2   10    6
 -4.59533587812906e-07    4    2   10    7
 4.623662261169613e-07    4    2   10    8
 -6.791706220028174e-07    4    2   10    9
 4.729493838172904e-05    4    2   10   10
 -0.003278738257300454    4    3    1    1
 0.0006466706713208907    4    3    2    1
 -0.01255352546659515    4    3    2    2
 0.0003140721341295578    4    3    3    1
 -0.001465120678529474    4    3    3    2
 -0.01382699448963324    4    3    3    3
 0.0001754723478331204    4    3    4    1
 -0.001049985827058718    4    3    4    2
 0.01027212299190295    4    3    4    3
 -0.01381239543903792    4    3    4    4
 -1.08003960074039e-05    4    3    5    1
 9.037978354914313e-05    4    3    5    2
 -0.001059499934634857    4    3    5    3
 -0.001461304510083602    4    3    5    4
 -0.01258859044325841    4    3    5    5
 9.788794318199119e-07    4    3    6    1
 -1.283804012008345e-05    4    3    6    2
 0.0002022905892522506    4    3    6    3
 0.0003283315823515428    4    3    6    4
 0.0007576625837969791    4    3    6    5
 -0.003504305686249922    4    3    6    6
 -3.509206214028746e-07    4    3    7    1
 3.638863060496344e-06    4    3    7    2
 -5.190952271365748e-05    4    3    7    3
 -4.512575325035144e-05    4    3    7    4
 -0.0001404709774616144    4    3    7    5
 0.0001631102086413451    4    3    7    6
 -0.001259631505865119    4    3    7    7
 1.017902426778884e-07    4    3    8    1
 -9.767640033223675e-07    4    3    8    2
 1.281779401645163e-05    4    3    8    3
 7.919002957532441e-06    4    3    8    4
 3.904483898031406e-05    4    3    8    5
 -3.345445921188862e-05    4    3    8    6
 3.794138254567994e-05    4    3    8    7
 -0.0005822530468468408    4    3    8    8
 -2.546789678011001e-08    4    3    9    1
 2.425051050027849e-07    4    3    9    2
 -3.11697402061297e-06    4    3    9    3
 -1.694466647275494e-06    4    3    9    4
 -9.877263761172107e-06    4    3    9    5
 9.383484133295998e-06    4    3    9    6
 -8.164400134766146e-06    4    3    9    7
 1.144124284935774e-05    4    3    9    8
 -0.0003156774126421923    4    3    9    9
 5.796312590822069e-09    4    3   10    1
 -5.448363474888268e-08    4    3   10    2
 6.915779530861206e-07    4    3   10    3
 3.269870991454528e-07    4    3   10    4
 2.151648304948659e-06    4    3   10    5
 -2.115974592710865e-06    4    3   10    6
 2.105927640283224e-06    4    3   10    7
 -2.061283623030617e-06    4    3   10    8
 2.978014204627407e-06    4    3   10    9
 -0.00018523977208746    4    3   10   10
 0.1624735497210321    4    4    1    1
 -0.002501184059071532    4    4    2    1
 0.2474326543578538    4    4    2    2
 0.002098186411018433    4    4    3    1
 -0.01242214665991554    4    4    3    2
 0.4600513340946109    4    4    3    3
 -0.0009577023974501878    4    4    4    1
 0.002511236715639691    4    4    4    2
 -0.0138123954390359    4    4    4    3
 0.8919141453054944    4    4    4    4
 -0.0001867587158204617    4    4    5    1
 0.001223305829287361    4    4    5    2
 -0.006148380980239796    4    4    5    3
 -0.01383590967312596    4    4    5    4
 0.4601131394759381    4    4    5    5
 5.067537461999124e-05    4    4    6    1
 -0.0002890041930407855    4    4    6    2
 0.001223771603836243    4    4    6    3
 0.002579545676091738    4    4    6    4
 -0.01260023350771538    4    4    6    5
 0.247848760024863    4    4    6    6
 -9.706036138660454e-06    4    4    7    1
 5.41223021418507e-05    4    4    7    2
 -0.0001960655048114727    4    4    7    3
 -0.001160435031649181    4    4    7    4
 0.002589116899282747    4    4    7    5
 -0.003508760817320844    4    4    7    6
 0.165920446677925    4    4    7    7
 2.021049052422755e-06    4    4    8    1
 -1.124464108134523e-05    4    4    8    2
 3.639948359704377e-05    4    4    8    3
 0.0003326948609309591    4    4    8    4
 -0.0007640762174998877    4    4    8    5
 0.0007880774694025913    4    4    8    6
 -0.001259631505864963    4    4    8    7
 0.1246168042093598    4    4    8    8
 -4.465377370885824e-07    4    4    9    1
 2.465303950904226e-06    4    4    9    2
 -7.309032417619367e-06    4    4    9    3
 -8.550566244050028e-05    4    4    9    4
 0.0001984155517867181    4    4    9    5
 -0.0002441441004108216    4    4    9    6
 0.0002947799099317152    4    4    9    7
 -0.0005614379659129902    4    4    9    8
 0.0997146056392596    4    4    9    9
 9.173676277067308e-08    4    4   10    1
 -5.022930451077676e-07    4    4   10    2
 1.377085190568103e-06    4    4   10    3
 1.9771733920519e-05    4    4   10    4
 -4.40142320588925e-05    4    4   10    5
 5.613213142596683e-05    4    4   10    6
 -7.801668473190191e-05    4    4   10    7
 8.627792055150482e-05    4    4   10    8
 -0.0001078175093374325    4    4   10    9
 0.08230292574051649    4    4   10   10
 0.0002732267087042548    5    1    1    1
 -4.892594357726775e-05    5    1    2    1
 -0.0002115940049574811    5    1    2    2
 1.185429942846769e-05    5    1    3    1
 -1.03394169852938e-05    5    1    3    2
 -0.0002786230635270575    5    1    3    3
 -3.304379683954437e-06    5    1    4    1
 5.976673055498418e-06    5    1    4    2
 -1.080039600741066e-05    5    1    4    3
 -0.0001867587158204388    5    1    4    4
 1.21250111559812e-06    5    1    5    1
 -3.236785783546622e-06    5    1    5    2
 1.123847230731451e-05    5    1    5    3
 -4.542887335031135e-05    5    1    5    4
 0.0002848226542185276    5    1    5    5
 -1.913042038199637e-07    5    1    6    1
 2.856990677380122e-07    5    1    6    2
 -4.630728780522748e-07    5    1    6    3
 -4.501192977798447e-07    5    1    6    4
 7.161495256223688e-06    5    1    6    5
 0.0001720603815496106    5    1    6    6
 4.179543729392032e-08    5    1    7    1
 -4.409023687667769e-08    5    1    7    2
 4.265799330481969e-09    5    1    7    3
 4.898588598649266e-07    5    1    7    4
 -1.859296616292961e-06    5    1    7    5
 -8.727429118364713e-06    5    1    7    6
 5.613213142573533e-05    5    1    7    7
 -1.056404854543218e-08    5    1    8    1
 1.135418426742697e-08    5    1    8    2
 -5.444622056909175e-09    5    1    8    3
 -7.462729672759472e-08    5    1    8    4
 6.215493434088236e-08    5    1    8    5
 1.665006798475295e-06    5    1    8    6
 -2.115974592706892e-06    5    1    8    7
 2.31464108816314e-05    5    1    8    8
 2.646527351210402e-09    5    1    9    1
 -2.817375872970555e-09    5    1    9    2
 1.521441641006236e-09    5    1    9    3
 1.360579765318825e-08    5    1    9    4
 1.981216692891509e-08    5    1    9    5
 -4.706540782174492e-07    5    1    9    6
 4.382090636357269e-07    5    1    9    7
 -5.555189123224908e-07    5    1    9    8
 1.166140079174698e-05    5    1    9    9
 -5.894605668795555e-10    5    1   10    1
 6.088200125120224e-10    5    1   10    2
 -2.734173227779809e-10    5    1   10    3
 -3.015833286585626e-09    5    1   10    4
 -6.302599723085686e-09    5    1   10    5
 1.067226902920318e-07    5    1   10    6
 -1.105400038493213e-07    5    1   10    7
 9.978535990810284e-08    5    1   10    8
 -1.349897478481727e-07    5    1   10    9
 6.467779803767563e-06    5    1   10   10
 -0.0007122725959480654    5    2    1    1
 -5.146751038830647e-05    5    2    2    1
 -0.001147755929489293    5    2    2    2
 4.437375754699157e-06    5    2    3    1
 0.0002021144775500611    5    2    3    2
 0.001226739303178795    5    2    3    3
 3.954007029743766e-06    5    2    4    1
 -6.433909215849006e-05    5    2    4    2
 9.037978354919353e-05    5    2    4    3
 0.001223305829287172    5    2    4    4
 -3.236785783546705e-06    5    2    5    1
 2.495740452411747e-05    5    2    5    2
 -6.407042597754019e-05    5    2    5    3
 0.0002002960435368753    5    2    5    4
 -0.001144817551221153    5    2    5    5
 3.254735215901643e-07    5    2    6    1
 -3.728968707420435e-06    5    2    6    2
 4.638135399210845e-06    5    2    6    3
 3.753030878690894e-06    5    2    6    4
 -4.491227304950718e-05    5    2    6    5
 -0.0007555061552995754    5    2    6    6
 -5.61306951880402e-08    5    2    7    1
 7.787796016328157e-07    5    2    7    2
 -5.546195079811905e-07    5    2    7    3
 -2.946226480873336e-06    5    2    7    4
 1.091870315792249e-05    5    2    7    5
 3.871189978367636e-05    5    2    7    6
 -0.0002441441004107378    5    2    7    7
 1.472955040582543e-08    5    2    8    1
 -1.94813107222891e-07    5    2    8    2
 1.491972560182005e-07    5    2    8    3
 5.340757169195872e-07    5    2    8    4
 -8.973775570771015e-07    5    2    8    5
 -7.343831984912202e-06    5    2    8    6
 9.383484133287186e-06    5    2    8    7
 -0.0001000751995295055    5    2    8    8
 -3.726204072379164e-09    5    2    9    1
 4.844685756758643e-08    5    2    9    2
 -3.658348711076642e-08    5    2    9    3
 -1.102708288360895e-07    5    2    9    4
 5.96719164461569e-08    5    2    9    5
 2.075547738123131e-06    5    2    9    6
 -1.936182161807204e-06    5    2    9    7
 2.422287938496437e-06    5    2    9    8
 -5.070055499938936e-05    5    2    9    9
 8.213904715224906e-10    5    2   10    1
 -1.07135483308751e-08    5    2   10    2
 7.674037180638542e-09    5    2   10    3
 2.475428479156962e-08    5    2   10    4
 -3.755462698887939e-09    5    2   10    5
 -4.70654078217925e-07    5    2   10    6
 4.869980800972116e-07    5    2   10    7
 -4.34579640604632e-07    5    2   10    8
 5.809422986113506e-07    5    2   10    9
 -2.856929550383465e-05    5    2   10   10
 0.0007401537622537572    5    3    1    1
 -0.0001186879620737725    5    3    2    1
 0.002580141658454067    5    3    2    2
 -6.90617187399085e-05    5    3    3    1
 0.0003288622381325214    5    3    3    2
 0.002577608804151355    5    3    3    3
 3.785628653702489e-06    5    3    4    1
 3.264606460165555e-05    5    3    4    2
 -0.001059499934634988    5    3    4    3
 -0.006148380980238905    5    3    4    4
 1.123847230731571e-05    5    3    5    1
 -6.407042597753932e-05    5    3    5    2
 0.0004520770081327217    5    3    5    3
 -0.001058931837928185    5    3    5    4
 0.002575107064601071    5    3    5    5
 -9.909679609206517e-07    5    3    6    1
 6.893106629263616e-06    5    3    6    2
 -6.461818521044383e-05    5    3    6    3
 3.292700131302868e-05    5    3    6    4
 0.000328259409568121    5    3    6    5
 0.002586725818709731    5    3    6    6
 1.356352897965342e-07    5    3    7    1
 -1.1462257839118e-06    5    3    7    2
 1.286500758104496e-05    5    3    7    3
 3.743069855207623e-06    5    3    7    4
 -7.270898754885702e-05    5    3    7    5
 -0.0001404630204526698    5    3    7    6
 0.0007880774694024556    5    3    7    7
 -3.607897535075419e-08    5    3    8    1
 2.950816735800163e-07    5    3    8    2
 -3.132217336673021e-06    5    3    8    3
 -4.49959125641948e-07    5    3    8    4
 1.097025624085788e-05    5    3    8    5
 2.609129618590481e-05    5    3    8    6