 &FCI NORB=12 ,NELEC=7 ,MS2=1,
  ORBSYM=1,1,2,5,6,3,5,4,8,7,3,7,
  ISYM=1,
 &END
  3.755471676495e-01    1  1  1  1
 -5.121430757823e-04    2  1  1  1
  1.204138207378e-02    2  1  2  1
  3.402467473379e-01    2  2  1  1
 -5.251905257591e-04    2  2  2  1
  3.556342392068e-01    2  2  2  2
  1.113489682959e-02    3  1  3  1
 -3.913097381455e-05    3  2  3  1
  1.109706117007e-02    3  2  3  2
  3.443220695017e-01    3  3  1  1
 -1.493667199619e-03    3  3  2  1
  3.340746671063e-01    3  3  2  2
  3.571294363160e-01    3  3  3  3
  3.301976688359e-02    4  1  4  1
  4.951021004933e-02    4  2  4  1
  1.199926267595e-01    4  2  4  2
  1.104823019368e-02    4  3  4  3
  3.416613387468e-01    4  4  1  1
  1.009854022755e-02    4  4  2  1
  3.502329941404e-01    4  4  2  2
  3.302201839064e-01    4  4  3  3
  3.573539904682e-01    4  4  4  4
  4.252670463107e-03    5  1  4  3
  1.016362212780e-02    5  1  5  1
  1.008223509724e-02    5  2  4  3
  3.489707652830e-04    5  2  5  1
  1.086835752575e-02    5  2  5  2
  4.808775135478e-02    5  3  4  1
  1.040848090813e-01    5  3  4  2
  1.323242697504e-01    5  3  5  3
  4.928716236012e-03    5  4  3  1
  1.032770685942e-02    5  4  3  2
  1.251361270698e-02    5  4  5  4
  3.455104678199e-01    5  5  1  1
 -1.166166407798e-03    5  5  2  1
  3.358108934456e-01    5  5  2  2
  3.587925122282e-01    5  5  3  3
  3.331202364471e-01    5  5  4  4
  3.618315917712e-01    5  5  5  5
  4.752369814164e-02    6  1  6  1
 -4.591515188898e-02    6  2  6  1
  7.271564869891e-02    6  2  6  2
  9.425937526930e-03    6  3  6  3
  3.453611220883e-02    6  4  6  4
  9.267417833135e-03    6  5  6  5
  3.529442935275e-01    6  6  1  1
 -1.049985705414e-02    6  6  2  1
  3.506804671208e-01    6  6  2  2
  3.371951898698e-01    6  6  3  3
  3.413000557651e-01    6  6  4  4
  3.392542161127e-01    6  6  5  5
  3.653958019457e-01    6  6  6  6
  4.308783148861e-02    7  1  4  1
  8.346673983188e-02    7  1  4  2
  9.120364306791e-02    7  1  5  3
  9.039562007320e-02    7  1  7  1
 -1.261228496793e-02    7  2  4  1
 -4.765968272550e-02    7  2  4  2
 -5.032899032877e-02    7  2  5  3
 -4.128562313781e-02    7  2  7  1
  3.581404453256e-02    7  2  7  2
  1.177102931869e-03    7  3  4  3
  6.944907719223e-03    7  3  5  1
 -2.698805814214e-03    7  3  5  2
  1.089288246651e-02    7  3  7  3
  7.553939442627e-03    7  4  1  1
  8.593156919524e-03    7  4  2  1
 -8.615074870705e-03    7  4  2  2
 -1.768645247891e-03    7  4  3  3
  2.361859353995e-03    7  4  4  4
 -2.147883435197e-03    7  4  5  5
 -8.568356503767e-03    7  4  6  6
  1.551303917390e-02    7  4  7  4
  8.788391445944e-03    7  5  3  1
 -3.684516383257e-03    7  5  3  2
  1.729456157985e-03    7  5  5  4
  1.268623898443e-02    7  5  7  5
 -3.182371761882e-02    7  6  6  4
  5.970313000472e-02    7  6  7  6
  3.771317886850e-01    7  7  1  1
 -6.226500720737e-03    7  7  2  1
  3.551062079818e-01    7  7  2  2
  3.551287780426e-01    7  7  3  3
  3.486905730840e-01    7  7  4  4
  3.557856501275e-01    7  7  5  5
  3.691454764587e-01    7  7  6  6
  5.682948876979e-04    7  7  7  4
  3.962691956521e-01    7  7  7  7
  5.507273418920e-03    8  1  6  3
  9.840832195716e-03    8  1  8  1
 -7.831977982410e-03    8  2  6  3
  1.027255325500e-03    8  2  8  1
  1.125850477794e-02    8  2  8  2
  5.330451456507e-02    8  3  6  1
 -6.711822476699e-02    8  3  6  2
  1.004724940779e-01    8  3  8  3
 -6.066836067011e-03    8  4  6  5
  1.298198908726e-02    8  4  8  4
 -3.440247168847e-02    8  5  6  4
  5.344442023735e-02    8  5  7  6
  8.120066319815e-02    8  5  8  5
  6.671742970556e-03    8  6  3  1
 -8.671875302171e-03    8  6  3  2
 -5.581254918865e-03    8  6  5  4
  7.945029034355e-03    8  6  7  5
  1.170943655000e-02    8  6  8  6
  5.937048116926e-03    8  7  6  5
  2.949794631263e-03    8  7  8  4
  1.116128900541e-02    8  7  8  7
  3.455928079600e-01    8  8  1  1
  1.264210027380e-04    8  8  2  1
  3.369479308656e-01    8  8  2  2
  3.574926176095e-01    8  8  3  3
  3.360421102183e-01    8  8  4  4
  3.600471665652e-01    8  8  5  5
  3.413939980541e-01    8  8  6  6
  1.065001191806e-03    8  8  7  4
  3.578058162377e-01    8  8  7  7
  3.627596899137e-01    8  8  8  8
  4.358263968641e-03    9  1  6  5
  4.287564517245e-03    9  1  8  4
  7.758266591057e-03    9  1  8  7
  7.803502909980e-03    9  1  9  1
 -8.457707512931e-03    9  2  6  5
  1.153148123735e-02    9  2  8  4
 -1.152138361655e-03    9  2  8  7
  8.322881804181e-04    9  2  9  1
  1.174717755189e-02    9  2  9  2
 -3.389286242802e-02    9  3  6  4
  5.276123370801e-02    9  3  7  6
  8.013878369062e-02    9  3  8  5
  7.909273860237e-02    9  3  9  3
 -5.349527551321e-03    9  4  6  3
  5.437534770874e-03    9  4  8  1
  1.172880519289e-02    9  4  8  2
  1.437967255991e-02    9  4  9  4
  5.375333785157e-02    9  5  6  1
 -6.959417912567e-02    9  5  6  2
  1.033575152030e-01    9  5  8  3
  1.070059793545e-01    9  5  9  5
 -5.810888435342e-03    9  6  4  3
  5.809503082205e-03    9  6  5  1
 -8.805963633387e-03    9  6  5  2
  6.478810220521e-03    9  6  7  3
  1.143544573993e-02    9  6  9  6
  7.054336390054e-03    9  7  6  3
  9.342511736235e-03    9  7  8  1
 -1.301426414179e-03    9  7  8  2
  3.439699475063e-03    9  7  9  4
  1.214805288591e-02    9  7  9  7
  5.004586181650e-02    9  8  4  1
  1.096971776439e-01    9  8  4  2
  1.352278731365e-01    9  8  5  3
  9.485771803365e-02    9  8  7  1
 -4.989943109983e-02    9  8  7  2
  1.422689179621e-01    9  8  9  8
  3.468578684495e-01    9  9  1  1
  1.581461301475e-04    9  9  2  1
  3.395189516016e-01    9  9  2  2
  3.598828025754e-01    9  9  3  3
  3.390291305210e-01    9  9  4  4
  3.634153772822e-01    9  9  5  5
  3.438351255257e-01    9  9  6  6
  3.309515402354e-04    9  9  7  4
  3.592196881388e-01    9  9  7  7
  3.656644132065e-01    9  9  8  8
  3.693638674232e-01    9  9  9  9
 -2.456371937116e-02    10  1  6  4
  5.444623425561e-02    10  1  7  6
  5.215451094206e-02    10  1  8  5
  5.147523214902e-02    10  1  9  3
  5.605991242703e-02    10  1  10  1
  2.634709144700e-02    10  2  6  4
 -3.598737838781e-02    10  2  7  6
 -3.044743557697e-02    10  2  8  5
 -3.004476392435e-02    10  2  9  3
 -2.678570343084e-02    10  2  10  1
  2.836753807650e-02    10  2  10  2
  6.966925228527e-03    10  3  6  5
  6.105435386979e-04    10  3  8  4
  9.770530345614e-03    10  3  8  7
  7.088012409166e-03    10  3  9  1
 -3.098825920330e-03    10  3  9  2
  9.089712777431e-03    10  3  10  3
 -2.626773283301e-04    10  4  6  1
  1.407477487475e-02    10  4  6  2
 -6.428477964735e-04    10  4  8  3
 -1.743714394526e-03    10  4  9  5
  1.509521629088e-02    10  4  10  4
  7.896706102183e-03    10  5  6  3
  8.371815195190e-03    10  5  8  1
 -3.302067821762e-03    10  5  8  2
  7.826683101770e-04    10  5  9  4
  1.065159599047e-02    10  5  9  7
  9.974209113451e-03    10  5  10  5
  4.010982149288e-02    10  6  4  1
  1.017565607182e-01    10  6  4  2
  1.049923316187e-01    10  6  5  3
  9.696555136662e-02    10  6  7  1
 -5.737025322832e-02    10  6  7  2
  1.096607884841e-01    10  6  9  8
  1.178947118852e-01    10  6  10  6
  7.443604087594e-02    10  7  6  1
 -8.151857714628e-02    10  7  6  2
  9.591181726881e-02    10  7  8  3
  9.767205862718e-02    10  7  9  5
  5.325329319055e-04    10  7  10  4
  1.295728426898e-01    10  7  10  7
  2.877230142642e-04    10  8  4  3
  7.581930765775e-03    10  8  5  1
 -3.702564587075e-03    10  8  5  2
  1.048569704782e-02    10  8  7  3
  8.318218200082e-03    10  8  9  6
  1.110593130282e-02    10  8  10  8
  8.974530336855e-03    10  9  3  1
 -4.429554045281e-03    10  9  3  2
  4.936001633833e-04    10  9  5  4
  1.196944096507e-02    10  9  7  5
  9.495911855296e-03    10  9  8  6
  1.236046077718e-02    10  9  10  9
  3.750199888248e-01    10  10  1  1
 -7.166106376024e-03    10  10  2  1
  3.565549223948e-01    10  10  2  2
  3.528488751812e-01    10  10  3  3
  3.509084959891e-01    10  10  4  4
  3.544125397154e-01    10  10  5  5
  3.740325126711e-01    10  10  6  6
 -1.969069338186e-04    10  10  7  4
  3.949554515570e-01    10  10  7  7
  3.578250532918e-01    10  10  8  8
  3.598587763409e-01    10  10  9  9
  3.975416218548e-01    10  10  10  10
  3.496591330273e-02    11  1  6  1
 -4.128583680498e-02    11  1  6  2
  5.145752739900e-02    11  1  8  3
  5.377449113405e-02    11  1  9  5
  2.391537913421e-03    11  1  10  4
  6.021290153449e-02    11  1  10  7
  4.690215477034e-02    11  1  11  1
  2.455585000837e-02    11  2  6  1
 -3.720630178539e-02    11  2  6  2
  4.477982354035e-02    11  2  8  3
  4.538284475448e-02    11  2  9  5
  2.218492384057e-03    11  2  10  4
  5.240878136030e-02    11  2  10  7
  2.786952430886e-02    11  2  11  1
  3.827479125642e-02    11  2  11  2
  1.184340782254e-03    11  3  6  3
  3.583361289078e-03    11  3  8  1
  1.137198286989e-03    11  3  8  2
  1.611555177012e-03    11  3  9  4
 -1.514801353813e-03    11  3  9  7
  1.258828560033e-04    11  3  10  5
  1.292433932875e-02    11  3  11  3
 -2.637764145369e-02    11  4  6  4
  3.561794786456e-02    11  4  7  6
  4.414110935151e-02    11  4  8  5
  4.355843996465e-02    11  4  9  3
  3.728005774182e-02    11  4  10  1
 -1.791223165002e-02    11  4  10  2
  4.575220169857e-02    11  4  11  4
  2.278518808844e-03    11  5  6  5
  1.783190741942e-03    11  5  8  4
 -1.096835684208e-03    11  5  8  7
  4.724705095237e-03    11  5  9  1
  7.658523116492e-04    11  5  9  2
  3.864512036725e-04    11  5  10  3
  1.360987443691e-02    11  5  11  5
  2.880947020949e-03    11  6  1  1
 -3.595829766654e-03    11  6  2  1
 -1.192307786760e-02    11  6  2  2
 -5.032223230595e-03    11  6  3  3
 -1.010431604093e-02    11  6  4  4
 -2.938691874844e-03    11  6  5  5
 -2.050678072289e-03    11  6  6  6
  1.629005158012e-03    11  6  7  4
 -6.301433348093e-03    11  6  7  7
 -5.158518060677e-03    11  6  8  8
 -3.905071681155e-03    11  6  9  9
 -3.507651477241e-03    11  6  10  10
  1.800221233279e-02    11  6  11  6
 -7.485023588404e-03    11  7  6  4
  1.224801823297e-02    11  7  7  6
  1.281546914333e-02    11  7  8  5
  1.255732928447e-02    11  7  9  3
  1.747131070338e-02    11  7  10  1
 -4.159967827548e-03    11  7  10  2
  9.926641842467e-03    11  7  11  4
  1.837925459187e-02    11  7  11  7
  6.040203626578e-03    11  8  3  1
  3.304498215807e-03    11  8  3  2
  3.641642900348e-03    11  8  5  4
 -2.392148933758e-03    11  8  7  5
  1.735005027889e-03    11  8  8  6
 -2.878855173281e-04    11  8  10  9
  1.673389986371e-02    11  8  11  8
  3.903761411423e-03    11  9  4  3
  7.943272428012e-03    11  9  5  1
  2.121841806467e-03    11  9  5  2
 -1.307578172854e-03    11  9  7  3
  3.069347989278e-03    11  9  9  6
  5.921871053566e-04    11  9  10  8
  1.634217339147e-02    11  9  11  9
  1.531711638081e-02    11  10  4  1
  2.628019726070e-02    11  10  4  2
  2.790568761466e-02    11  10  5  3
  3.164044001787e-02    11  10  7  1
 -8.714188484851e-03    11  10  7  2
  2.920781693272e-02    11  10  9  8
  3.046175902495e-02    11  10  10  6
  2.440357899846e-02    11  10  11  10
  3.817258463822e-01    11  11  1  1
  2.280998943413e-03    11  11  2  1
  3.657456188817e-01    11  11  2  2
  3.669771032300e-01    11  11  3  3
  3.649001829338e-01    11  11  4  4
  3.703791648846e-01    11  11  5  5
  3.667045342570e-01    11  11  6  6
 -3.439306907991e-03    11  11  7  4
  3.890142085742e-01    11  11  7  7
  3.672576310999e-01    11  11  8  8
  3.709825681048e-01    11  11  9  9
  3.869027828987e-01    11  11  10  10
 -2.880351018702e-03    11  11  11  6
  4.240001704921e-01    11  11  11  11
 -1.689711921846e-02    12  1  6  4
  2.574577813706e-02    12  1  7  6
  3.181523148251e-02    12  1  8  5
  3.134168364142e-02    12  1  9  3
  2.854981269342e-02    12  1  10  1
 -1.315844537861e-02    12  1  10  2
  2.831490604689e-02    12  1  11  4
  1.668937436124e-02    12  1  11  7
  2.787514030135e-02    12  1  12  1
 -2.560467608953e-02    12  2  6  4
  3.239857973444e-02    12  2  7  6
  3.830685563178e-02    12  2  8  5
  3.783282647245e-02    12  2  9  3
  3.033188085578e-02    12  2  10  1
 -1.883490333450e-02    12  2  10  2
  3.948660839841e-02    12  2  11  4
  2.291137170055e-03    12  2  11  7
  1.978959935733e-02    12  2  12  1
  3.734171526043e-02    12  2  12  2
  7.072838488593e-04    12  3  6  5
  1.755020287440e-03    12  3  8  4
 -3.145798841112e-03    12  3  8  7
  3.197472766112e-03    12  3  9  1
  1.529445780204e-03    12  3  9  2
 -1.556844887727e-03    12  3  10  3
  1.338961783708e-02    12  3  11  5
  1.358941556614e-02    12  3  12  3
  3.572842319534e-02    12  4  6  1
 -5.434016467420e-02    12  4  6  2
  6.191258440820e-02    12  4  8  3
  6.389276064164e-02    12  4  9  5
 -1.203040901289e-04    12  4  10  4
  7.178856205251e-02    12  4  10  7
  4.515908808866e-02    12  4  11  1
  4.623058264105e-02    12  4  11  2
  6.186033579683e-02    12  4  12  4
  3.722144164861e-05    12  5  6  3
  2.510486914230e-03    12  5  8  1
  1.710367792161e-03    12  5  8  2
  1.642360672687e-03    12  5  9  4
 -3.390004363016e-03    12  5  9  7
 -1.527640927698e-03    12  5  10  5
  1.371604919164e-02    12  5  11  3
  1.492131756587e-02    12  5  12  5
 -7.031740332762e-03    12  6  4  1
 -2.092951857446e-02    12  6  4  2
 -1.244548970206e-02    12  6  5  3
 -6.915392707974e-03    12  6  7  1
  7.900573208929e-03    12  6  7  2
 -1.448629775226e-02    12  6  9  8
 -1.259822968752e-02    12  6  10  6
  9.990901851977e-03    12  6  11  10
  1.670466478793e-02    12  6  12  6
 -5.853932902846e-04    12  7  6  1
  2.172174205456e-03    12  7  6  2
 -3.220695071376e-03    12  7  8  3
 -2.414076546879e-03    12  7  9  5
  3.657329123472e-03    12  7  10  4
 -5.415162097048e-03    12  7  10  7
  1.104223597882e-02    12  7  11  1
 -7.249832528582e-03    12  7  11  2
 -1.551556960926e-03    12  7  12  4
  1.733208645168e-02    12  7  12  7
  3.970263979671e-03    12  8  4  3
  6.394859953910e-03    12  8  5  1
  3.007577608324e-03    12  8  5  2
 -3.448707164797e-03    12  8  7  3
  1.266708118738e-03    12  8  9  6
 -1.692365618142e-03    12  8  10  8
  1.619816885985e-02    12  8  11  9
  1.652668792739e-02    12  8  12  8
  4.899086698185e-03    12  9  3  1
  4.113974709425e-03    12  9  3  2
  3.773980026591e-03    12  9  5  4
 -4.565555887064e-03    12  9  7  5
  2.029358220381e-04    12  9  8  6
 -2.494562807970e-03    12  9  10  9
  1.764169244889e-02    12  9  11  8
  1.906143532009e-02    12  9  12  9
 -1.043998857659e-03    12  10  1  1
  2.010380973853e-03    12  10  2  1
 -1.302486615514e-02    12  10  2  2
 -1.111842777955e-02    12  10  3  3
 -5.921087669748e-03    12  10  4  4
 -9.027367688186e-03    12  10  5  5
 -8.885610919037e-03    12  10  6  6
  6.421339490285e-03    12  10  7  4
 -1.442970031188e-02    12  10  7  7
 -1.011452534243e-02    12  10  8  8
 -8.929383278820e-03    12  10  9  9
 -1.152580869660e-02    12  10  10  10
  1.676798053622e-02    12  10  11  6
 -7.199568134700e-03    12  10  11  11
  2.028073234678e-02    12  10  12  10
  6.396848015116e-02    12  11  4  1
  1.279746714585e-01    12  11  4  2
  1.381574968457e-01    12  11  5  3
  1.104723467366e-01    12  11  7  1
 -6.322330162250e-02    12  11  7  2
  1.400763949637e-01    12  11  9  8
  1.269161680685e-01    12  11  10  6
  3.373694569228e-02    12  11  11  10
 -1.731341346752e-02    12  11  12  6
  1.888389089457e-01    12  11  12  11
  3.840633321647e-01    12  12  1  1
  2.168713561460e-03    12  12  2  1
  3.732178397388e-01    12  12  2  2
  3.739159817186e-01    12  12  3  3
  3.703242299608e-01    12  12  4  4
  3.770712944296e-01    12  12  5  5
  3.717056591523e-01    12  12  6  6
 -6.598317309498e-03    12  12  7  4
  3.959492146499e-01    12  12  7  7
  3.737154835022e-01    12  12  8  8
  3.774346506157e-01    12  12  9  9
  3.927940384407e-01    12  12  10  10
 -8.708251610369e-03    12  12  11  6
  4.323482805462e-01    12  12  11  11
 -1.431063934969e-02    12  12  12  10
  4.437938791363e-01    12  12  12  12
 -2.751229992940e+00    1  1  0  0
  1.567643828876e-02    2  1  0  0
 -2.610189268547e+00    2  2  0  0
 -2.610741421531e+00    3  3  0  0
 -2.524573266189e+00    4  4  0  0
 -2.527122367335e+00    5  5  0  0
 -2.447863201018e+00    6  6  0  0
  2.370478333995e-03    7  4  0  0
 -2.473881677939e+00    7  7  0  0
 -2.379281706538e+00    8  8  0  0
 -2.314457846118e+00    9  9  0  0
 -2.264634347024e+00    10  10  0  0
  2.297383096299e-02    11  6  0  0
 -2.151898800458e+00    11  11  0  0
  6.426702063037e-02    12  10  0  0
 -2.121087702743e+00    12  12  0  0
   -137.181033899389   0  0  0  0
