 &FCI NORB=12 ,NELEC=8 ,MS2=0,
  ORBSYM=1,1,5,2,6,3,4,5,8,7,3,7,
  ISYM=1,
 &END
  3.874969265041e-01    1  1  1  1
 -4.867699497139e-03    2  1  1  1
  1.203838638428e-02    2  1  2  1
  3.580616486145e-01    2  2  1  1
 -8.634987077081e-03    2  2  2  1
  3.880076971281e-01    2  2  2  2
  1.062639043237e-01    3  1  3  1
 -7.145101829643e-02    3  2  3  1
  6.541306042598e-02    3  2  3  2
  3.818000218766e-01    3  3  1  1
 -1.858015392924e-02    3  3  2  1
  3.758171327884e-01    3  3  2  2
  3.995186887052e-01    3  3  3  3
  1.278991456629e-02    4  1  4  1
 -1.240665656365e-03    4  2  4  1
  1.206511927576e-02    4  2  4  2
  1.240326288507e-02    4  3  4  3
  3.487974339364e-01    4  4  1  1
 -6.132464683541e-03    4  4  2  1
  3.496296710143e-01    4  4  2  2
  3.546437714048e-01    4  4  3  3
  3.571294363160e-01    4  4  4  4
  1.059953634658e-02    5  1  4  3
  1.329461599894e-02    5  1  5  1
 -6.747768828982e-03    5  2  4  3
 -9.734913745599e-04    5  2  5  1
  9.097309691340e-03    5  2  5  2
  1.081869252562e-02    5  3  4  1
 -8.205080621765e-03    5  3  4  2
  1.377267731492e-02    5  3  5  3
  9.972958912679e-02    5  4  3  1
 -7.521651997694e-02    5  4  3  2
  1.323242697504e-01    5  4  5  4
  3.515072078720e-01    5  5  1  1
 -6.039335341997e-03    5  5  2  1
  3.491106879927e-01    5  5  2  2
  3.570963766960e-01    5  5  3  3
  3.587925122282e-01    5  5  4  4
  3.618315917712e-01    5  5  5  5
  2.173279969473e-02    6  1  6  1
  3.372628855721e-02    6  2  6  1
  9.398886873900e-02    6  2  6  2
  1.883583613884e-02    6  3  6  3
  9.295362552758e-03    6  4  6  4
  8.807079866827e-03    6  5  6  5
  3.524632128257e-01    6  6  1  1
  2.600421287825e-03    6  6  2  1
  3.683166940418e-01    6  6  2  2
  3.564976995307e-01    6  6  3  3
  3.394617401697e-01    6  6  4  4
  3.410394198551e-01    6  6  5  5
  3.685490354721e-01    6  6  6  6
  3.526545369183e-03    7  1  6  4
  8.156779902687e-03    7  1  7  1
  8.584113215981e-03    7  2  6  4
  7.325135854278e-04    7  2  7  1
  8.920507195110e-03    7  2  7  2
 -3.290862012769e-03    7  3  6  5
  7.966245522719e-03    7  3  7  3
  3.147361242626e-02    7  4  6  1
  8.003045515155e-02    7  4  6  2
  1.004724940779e-01    7  4  7  4
 -2.445174926797e-02    7  5  6  3
  8.120066319815e-02    7  5  7  5
  4.234430553612e-03    7  6  4  1
  9.807898333118e-03    7  6  4  2
 -3.070415609221e-03    7  6  5  3
  1.146150519294e-02    7  6  7  6
  3.476543131658e-01    7  7  1  1
 -4.955994067939e-03    7  7  2  1
  3.489327761522e-01    7  7  2  2
  3.533535642709e-01    7  7  3  3
  3.574926176095e-01    7  7  4  4
  3.600471665652e-01    7  7  5  5
  3.434875526729e-01    7  7  6  6
  3.627596899137e-01    7  7  7  7
  6.221088535118e-02    8  1  3  1
 -3.706721505521e-02    8  1  3  2
  6.725949364940e-02    8  1  5  4
  5.714073164968e-02    8  1  8  1
  6.647854584296e-02    8  2  3  1
 -5.704550457757e-02    8  2  3  2
  7.848163283801e-02    8  2  5  4
  4.792158561522e-02    8  2  8  1
  6.812569396965e-02    8  2  8  2
  9.046838153695e-04    8  3  1  1
  5.110621996945e-03    8  3  2  1
 -2.340631216390e-02    8  3  2  2
 -1.263529726250e-02    8  3  3  3
 -1.007076407521e-02    8  3  4  4
 -8.998568583215e-03    8  3  5  5
 -1.226932092917e-02    8  3  6  6
 -7.441431644868e-03    8  3  7  7
  1.659214975346e-02    8  3  8  3
 -1.213172285568e-03    8  4  4  3
  3.939966876277e-03    8  4  5  1
  6.212598499621e-03    8  4  5  2
  1.108113893453e-02    8  4  8  4
  4.405717560845e-03    8  5  4  1
  8.687269608935e-03    8  5  4  2
 -1.635605243876e-03    8  5  5  3
  8.465701858677e-03    8  5  7  6
  1.295341678258e-02    8  5  8  5
 -2.270114057332e-02    8  6  6  3
  5.397438674546e-02    8  6  7  5
  6.057813712976e-02    8  6  8  6
  6.229559934367e-03    8  7  6  5
  6.000436910118e-04    8  7  7  3
  1.139511019395e-02    8  7  8  7
  3.741611889201e-01    8  8  1  1
  6.155077025040e-04    8  8  2  1
  3.787484214551e-01    8  8  2  2
  3.736303406978e-01    8  8  3  3
  3.556082082348e-01    8  8  4  4
  3.561597349063e-01    8  8  5  5
  3.729655173534e-01    8  8  6  6
  3.583736464547e-01    8  8  7  7
 -9.913579770661e-03    8  8  8  3
  3.976406108863e-01    8  8  8  8
  2.786873289191e-03    9  1  6  5
  5.611621121819e-03    9  1  7  3
  5.253905289267e-03    9  1  8  7
  7.479202353738e-03    9  1  9  1
  8.070784832129e-03    9  2  6  5
 -5.581876659225e-03    9  2  7  3
  5.024995904030e-03    9  2  8  7
  4.889081002607e-05    9  2  9  1
  8.410721330314e-03    9  2  9  2
 -3.135226434817e-03    9  3  6  4
  5.927426750523e-03    9  3  7  1
 -5.556036018770e-03    9  3  7  2
  8.592477214624e-03    9  3  9  3
 -2.412273963322e-02    9  4  6  3
  8.013878369062e-02    9  4  7  5
  5.329179808693e-02    9  4  8  6
  7.909273860237e-02    9  4  9  4
  3.170771295736e-02    9  5  6  1
  8.180218053596e-02    9  5  6  2
  1.033575152030e-01    9  5  7  4
  1.070059793545e-01    9  5  9  5
 -2.466760250935e-03    9  6  4  3
  4.228923629438e-03    9  6  5  1
  8.517631264611e-03    9  6  5  2
  6.767889469078e-03    9  6  8  4
  1.078250552046e-02    9  6  9  6
  9.900593765075e-02    9  7  3  1
 -7.687813050076e-02    9  7  3  2
  1.352278731365e-01    9  7  5  4
  7.041919846219e-02    9  7  8  1
  7.964287412386e-02    9  7  8  2
  1.422689179621e-01    9  7  9  7
  7.479389471810e-03    9  8  6  4
  6.306186916901e-03    9  8  7  1
  6.078335417527e-03    9  8  7  2
  7.877935060733e-04    9  8  9  3
  1.241472894743e-02    9  8  9  8
  3.501978323779e-01    9  9  1  1
 -5.211868371794e-03    9  9  2  1
  3.501237668252e-01    9  9  2  2
  3.563473998465e-01    9  9  3  3
  3.598828025754e-01    9  9  4  4
  3.634153772822e-01    9  9  5  5
  3.455732652198e-01    9  9  6  6
  3.656644132065e-01    9  9  7  7
 -7.207899945483e-03    9  9  8  3
  3.597063013708e-01    9  9  8  8
  3.693638674232e-01    9  9  9  9
 -1.026204954857e-02    10  1  6  3
  3.889761216742e-02    10  1  7  5
  4.004629935391e-02    10  1  8  6
  3.836748726690e-02    10  1  9  4
  3.472266984655e-02    10  1  10  1
 -2.251687721925e-02    10  2  6  3
  4.612526497852e-02    10  2  7  5
  5.199780349216e-02    10  2  8  6
  4.554269959066e-02    10  2  9  4
  3.118698085949e-02    10  2  10  1
  4.627209284478e-02    10  2  10  2
  3.223237488024e-03    10  3  6  1
 -7.843965390790e-03    10  3  6  2
 -3.520480710903e-04    10  3  7  4
 -6.226882656972e-04    10  3  9  5
  9.538101566777e-03    10  3  10  3
  7.091812473129e-03    10  4  6  5
 -1.183186290386e-04    10  4  7  3
  9.874780859732e-03    10  4  8  7
  5.001703400638e-03    10  4  9  1
  5.820369535404e-03    10  4  9  2
  9.135337323856e-03    10  4  10  4
  8.112119255436e-03    10  5  6  4
  5.869456078259e-03    10  5  7  1
  6.704006716855e-03    10  5  7  2
 -1.035126281866e-05    10  5  9  3
  1.077290345848e-02    10  5  9  8
  1.003027217702e-02    10  5  10  5
  8.743079733105e-02    10  6  3  1
 -7.111536187742e-02    10  6  3  2
  1.046847454192e-01    10  6  5  4
  7.164393693952e-02    10  6  8  1
  8.559114404827e-02    10  6  8  2
  1.094102885046e-01    10  6  9  7
  1.168849732385e-01    10  6  10  6
 -4.834297195432e-04    10  7  4  3
  5.228493055182e-03    10  7  5  1
  6.573827646440e-03    10  7  5  2
  1.058691108399e-02    10  7  8  4
  8.466037728731e-03    10  7  9  6
  1.117443784344e-02    10  7  10  7
  4.573831783621e-02    10  8  6  1
  1.025484107245e-01    10  8  6  2
  9.627945559524e-02    10  8  7  4
  9.798929875585e-02    10  8  9  5
 -1.314375732232e-04    10  8  10  3
  1.306195734849e-01    10  8  10  8
  5.563155203343e-03    10  9  4  1
  8.430853219448e-03    10  9  4  2
 -9.072409343466e-04    10  9  5  3
  9.818231878553e-03    10  9  7  6
  1.211765577936e-02    10  9  8  5
  1.245523575117e-02    10  9  10  9
  3.709503218791e-01    10  10  1  1
  3.085688199713e-03    10  10  2  1
  3.761193337801e-01    10  10  2  2
  3.695692208477e-01    10  10  3  3
  3.530672388506e-01    10  10  4  4
  3.545805964703e-01    10  10  5  5
  3.769293679525e-01    10  10  6  6
  3.581147068240e-01    10  10  7  7
 -8.267175560778e-03    10  10  8  3
  3.959264861649e-01    10  10  8  8
  3.600971771934e-01    10  10  9  9
  3.982054863385e-01    10  10  10  10
  2.796027693389e-02    11  1  6  1
  6.328796643996e-02    11  1  6  2
  6.738579239019e-02    11  1  7  4
  7.006881528366e-02    11  1  9  5
  4.533748949661e-03    11  1  10  3
  7.864046906172e-02    11  1  10  8
  6.986397589045e-02    11  1  11  1
 -5.142069079948e-03    11  2  6  1
 -3.075573301835e-02    11  2  6  2
 -3.002724700102e-02    11  2  7  4
 -3.004740867333e-02    11  2  9  5
  4.243146423767e-03    11  2  10  3
 -3.514639521332e-02    11  2  10  8
 -2.348660783440e-02    11  2  11  1
  2.442648209602e-02    11  2  11  2
 -2.249752296056e-02    11  3  6  3
  5.477004057957e-02    11  3  7  5
  4.613566676593e-02    11  3  8  6
  5.406742853626e-02    11  3  9  4
  3.394620486788e-02    11  3  10  1
  3.879996040878e-02    11  3  10  2
  6.169180219387e-02    11  3  11  3
  7.355786286270e-04    11  4  6  4
  6.299649951886e-03    11  4  7  1
 -2.219389385600e-03    11  4  7  2
  6.416110687120e-03    11  4  9  3
 -1.830713338456e-03    11  4  9  8
  1.090865951341e-04    11  4  10  5
  1.332395716413e-02    11  4  11  4
  1.906790548087e-03    11  5  6  5
  6.435955408290e-03    11  5  7  3
 -1.373126899469e-03    11  5  8  7
  7.266775901411e-03    11  5  9  1
 -1.418224044339e-03    11  5  9  2
  3.965150992704e-04    11  5  10  4
  1.401443832832e-02    11  5  11  5
  2.981775634960e-03    11  6  1  1
  8.928439740022e-03    11  6  2  1
 -1.766451321294e-02    11  6  2  2
 -1.226225594456e-02    11  6  3  3
 -6.929989450296e-03    11  6  4  4
 -4.760375923425e-03    11  6  5  5
 -4.964530957208e-03    11  6  6  6
 -6.725176148979e-03    11  6  7  7
  1.040729382821e-02    11  6  8  3
 -8.808817991573e-03    11  6  8  8
 -5.441475107099e-03    11  6  9  9
 -5.160598665708e-03    11  6  10  10
  1.851881450581e-02    11  6  11  6
  1.131455244458e-02    11  7  4  1
 -5.288542721853e-03    11  7  4  2
  1.189144614951e-02    11  7  5  3
  1.072887254174e-03    11  7  7  6
 -2.838184818890e-03    11  7  8  5
 -3.638716566839e-04    11  7  10  9
  1.733515461108e-02    11  7  11  7
 -7.780196159209e-04    11  8  6  3
  1.282887775585e-02    11  8  7  5
  1.183899038136e-02    11  8  8  6
  1.256824810431e-02    11  8  9  4
  1.742583960313e-02    11  8  10  1
  7.686654456639e-03    11  8  10  2
  1.093919443585e-02    11  8  11  3
  1.873446522486e-02    11  8  11  8
  1.098647667396e-02    11  9  4  3
  1.211026099752e-02    11  9  5  1
 -2.848746784589e-03    11  9  5  2
 -1.643349892930e-03    11  9  8  4
  2.613566016190e-03    11  9  9  6
  5.856736953170e-04    11  9  10  7
  1.686266313182e-02    11  9  11  9
  3.058082422419e-02    11  10  3  1
 -1.216210334594e-02    11  10  3  2
  3.013069457629e-02    11  10  5  4
  3.108032701596e-02    11  10  8  1
  1.713603724575e-02    11  10  8  2
  3.150893024447e-02    11  10  9  7
  3.208353777458e-02    11  10  10  6
  2.603490913129e-02    11  10  11  10
  3.959320519641e-01    11  11  1  1
 -1.149146409496e-02    11  11  2  1
  3.821938706864e-01    11  11  2  2
  4.036336410520e-01    11  11  3  3
  3.678583619202e-01    11  11  4  4
  3.713065319372e-01    11  11  5  5
  3.695682324458e-01    11  11  6  6
  3.679176753067e-01    11  11  7  7
 -1.038025260910e-02    11  11  8  3
  3.900451417671e-01    11  11  8  8
  3.716919685792e-01    11  11  9  9
  3.878002811089e-01    11  11  10  10
 -4.908855787930e-03    11  11  11  6
  4.262981661651e-01    11  11  11  11
 -1.612314739030e-02    12  1  6  3
  4.652684430768e-02    12  1  7  5
  3.873459727355e-02    12  1  8  6
  4.589112938135e-02    12  1  9  4
  3.135333333692e-02    12  1  10  1
  3.206332010218e-02    12  1  10  2
  5.143696523660e-02    12  1  11  3
  1.571249881150e-02    12  1  11  8
  4.710386626448e-02    12  1  12  1
  1.838993280170e-02    12  2  6  3
 -3.085271318697e-02    12  2  7  5
 -2.784770610111e-02    12  2  8  6
 -3.051373741563e-02    12  2  9  4
 -1.423330502102e-02    12  2  10  1
 -2.522328104266e-02    12  2  10  2
 -3.527993369561e-02    12  2  11  3
  4.020946919051e-03    12  2  11  8
 -2.369330037907e-02    12  2  12  1
  2.882499192074e-02    12  2  12  2
  2.410989136342e-02    12  3  6  1
  7.176564518803e-02    12  3  6  2
  7.342132106945e-02    12  3  7  4
  7.594859407458e-02    12  3  9  5
 -1.575633650404e-03    12  3  10  3
  8.486095796188e-02    12  3  10  8
  7.086306440774e-02    12  3  11  1
 -3.574396130220e-02    12  3  11  2
  8.137061527055e-02    12  3  12  3
  2.169091112358e-04    12  4  6  5
  6.481224676204e-03    12  4  7  3
 -3.647693465060e-03    12  4  8  7
  6.096666158767e-03    12  4  9  1
 -2.807736910079e-03    12  4  9  2
 -1.728955176220e-03    12  4  10  4
  1.385989502096e-02    12  4  11  5
  1.420267930210e-02    12  4  12  4
 -5.685525029942e-04    12  5  6  4
  5.694917404874e-03    12  5  7  1
 -3.466122622586e-03    12  5  7  2
  6.885449208708e-03    12  5  9  3
 -3.954549463915e-03    12  5  9  8
 -1.723312347910e-03    12  5  10  5
  1.422299540678e-02    12  5  11  4
  1.561149092881e-02    12  5  12  5
 -1.185306552114e-02    12  6  3  1
  2.089815530432e-02    12  6  3  2
 -1.459488198966e-02    12  6  5  4
 -1.463174622899e-03    12  6  8  1
 -1.498661489085e-02    12  6  8  2
 -1.646908186469e-02    12  6  9  7
 -1.501509588890e-02    12  6  10  6
  9.883697667418e-03    12  6  11  10
  1.754206674937e-02    12  6  12  6
  1.119472583225e-02    12  7  4  3
  1.100951919375e-02    12  7  5  1
 -4.392342428538e-03    12  7  5  2
 -4.025610955768e-03    12  7  8  4
  6.772878642088e-04    12  7  9  6
 -1.922850887277e-03    12  7  10  7
  1.680736304784e-02    12  7  11  9
  1.731700668874e-02    12  7  12  7
  2.435530960365e-03    12  8  6  1
 -7.602858148965e-03    12  8  6  2
 -5.090623446789e-03    12  8  7  4
 -4.265674851501e-03    12  8  9  5
  8.619404180982e-03    12  8  10  3
 -7.968125502005e-03    12  8  10  8
  5.361416358416e-03    12  8  11  1
  1.284391490183e-02    12  8  11  2
 -5.830367701936e-03    12  8  12  3
  1.815560719318e-02    12  8  12  8
  1.091106372674e-02    12  9  4  1
 -6.964444468559e-03    12  9  4  2
  1.273062038224e-02    12  9  5  3
 -6.657367081532e-04    12  9  7  6
 -5.298012536421e-03    12  9  8  5
 -2.808094931501e-03    12  9  10  9
  1.840242525833e-02    12  9  11  7
  2.008291010985e-02    12  9  12  9
  1.416027541327e-03    12  10  1  1
  5.716100552500e-03    12  10  2  1
 -2.306380039046e-02    12  10  2  2
 -1.183301154953e-02    12  10  3  3
 -1.170366722719e-02    12  10  4  4
 -9.491968840962e-03    12  10  5  5
 -1.129241552410e-02    12  10  6  6
 -1.073277639838e-02    12  10  7  7
  1.450687139547e-02    12  10  8  3
 -1.598309403454e-02    12  10  8  8
 -9.452616229610e-03    12  10  9  9
 -1.238682846677e-02    12  10  10  10
  1.775847116810e-02    12  10  11  6
 -7.388947285952e-03    12  10  11  11
  2.115573355839e-02    12  10  12  10
  1.344165493874e-01    12  11  3  1
 -9.782650160759e-02    12  11  3  2
  1.385498369083e-01    12  11  5  4
  8.044062660007e-02    12  11  8  1
  9.787445906181e-02    12  11  8  2
  1.402351114855e-01    12  11  9  7
  1.268049704881e-01    12  11  10  6
  3.645664872212e-02    12  11  11  10
 -2.028074886883e-02    12  11  12  6
  1.900366466229e-01    12  11  12  11
  3.996024130045e-01    12  12  1  1
 -1.508966516781e-02    12  12  2  1
  3.935745268964e-01    12  12  2  2
  4.137730445138e-01    12  12  3  3
  3.756967380180e-01    12  12  4  4
  3.788013576520e-01    12  12  5  5
  3.757062358763e-01    12  12  6  6
  3.751690146992e-01    12  12  7  7
 -1.665064274786e-02    12  12  8  3
  3.981468930918e-01    12  12  8  8
  3.788800203922e-01    12  12  9  9
  3.944397811406e-01    12  12  10  10
 -1.170895787789e-02    12  12  11  6
  4.355527760086e-01    12  12  11  11
 -1.544227433046e-02    12  12  12  10
  4.485682662831e-01    12  12  12  12
 -2.882087006378e+00    1  1  0  0
  5.120608447411e-02    2  1  0  0
 -2.875194355763e+00    2  2  0  0
 -2.832227725200e+00    3  3  0  0
 -2.705807755370e+00    4  4  0  0
 -2.620060617339e+00    5  5  0  0
 -2.544036967527e+00    6  6  0  0
 -2.459718366731e+00    7  7  0  0
  7.795523957473e-02    8  3  0  0
 -2.575416552611e+00    8  8  0  0
 -2.394417267909e+00    9  9  0  0
 -2.350675410783e+00    10  10  0  0
  4.211033644305e-02    11  6  0  0
 -2.275153956597e+00    11  11  0  0
  9.300578367578e-02    12  10  0  0
 -2.261084252593e+00    12  12  0  0
   -136.146392654249   0  0  0  0
