 &FCI NORB=12 ,NELEC=7 ,MS2=3,
  ORBSYM=1,2,1,5,6,3,4,5,8,7,3,7,
  ISYM=1,
 &END
  3.756008653080e-01    1  1  1  1
  1.115269461070e-02    2  1  2  1
  3.448057301419e-01    2  2  1  1
  3.571294363160e-01    2  2  2  2
  1.298727981103e-03    3  1  1  1
 -5.325446044968e-05    3  1  2  2
  1.337262255145e-02    3  1  3  1
  7.030056897368e-05    3  2  2  1
  1.166577141512e-02    3  2  3  2
  3.349042591915e-01    3  3  1  1
  3.276938443320e-01    3  3  2  2
  1.737941543456e-03    3  3  3  1
  3.479274742183e-01    3  3  3  3
  1.817073915393e-02    4  1  4  1
  1.111574557062e-02    4  2  4  2
  3.075175722799e-02    4  3  4  1
  1.358350290551e-01    4  3  4  3
  3.383045862978e-01    4  4  1  1
  3.297993191884e-01    4  4  2  2
  8.172573661622e-03    4  4  3  1
  3.505548374808e-01    4  4  3  3
  3.570595432002e-01    4  4  4  4
  2.444068290626e-03    5  1  4  2
  9.694358274547e-03    5  1  5  1
  2.823476558045e-02    5  2  4  1
  1.103516597698e-01    5  2  4  3
  1.323242697504e-01    5  2  5  2
  1.110795528674e-02    5  3  4  2
 -2.360116869315e-04    5  3  5  1
  1.189111484715e-02    5  3  5  3
  3.157124662594e-03    5  4  2  1
  1.163026367469e-02    5  4  3  2
  1.261673845837e-02    5  4  5  4
  3.455801990856e-01    5  5  1  1
  3.587925122282e-01    5  5  2  2
 -2.632972728758e-04    5  5  3  1
  3.300340571921e-01    5  5  3  3
  3.327032899217e-01    5  5  4  4
  3.618315917712e-01    5  5  5  5
  6.679317940664e-02    6  1  6  1
  9.487790099541e-03    6  2  6  2
 -4.631041143884e-02    6  3  6  1
  5.540458898258e-02    6  3  6  3
  3.326872779132e-02    6  4  6  4
  9.391017300717e-03    6  5  6  5
  3.568910509368e-01    6  6  1  1
  3.368991683150e-01    6  6  2  2
 -9.767731313223e-03    6  6  3  1
  3.425930068313e-01    6  6  3  3
  3.404843135324e-01    6  6  4  4
  3.390706349046e-01    6  6  5  5
  3.651467852305e-01    6  6  6  6
  6.849937585292e-03    7  1  6  2
  9.760524589277e-03    7  1  7  1
  6.571812101049e-02    7  2  6  1
 -5.469677084797e-02    7  2  6  3
  1.004724940779e-01    7  2  7  2
 -6.876397574789e-03    7  3  6  2
  1.367791103719e-03    7  3  7  1
  1.336482409301e-02    7  3  7  3
 -6.048413912788e-03    7  4  6  5
  1.315862229309e-02    7  4  7  4
 -3.320980298832e-02    7  5  6  4
  8.120066319815e-02    7  5  7  5
  8.163718057439e-03    7  6  2  1
 -7.530249915947e-03    7  6  3  2
 -5.510205707543e-03    7  6  5  4
  1.180269704809e-02    7  6  7  6
  3.457680341789e-01    7  7  1  1
  3.574926176095e-01    7  7  2  2
  1.766713477076e-03    7  7  3  1
  3.326547910815e-01    7  7  3  3
  3.357764054704e-01    7  7  4  4
  3.600471665652e-01    7  7  5  5
  3.410970868568e-01    7  7  6  6
  3.627596899137e-01    7  7  7  7
  2.767354678618e-02    8  1  4  1
  9.738546104053e-02    8  1  4  3
  9.916116579222e-02    8  1  5  2
  1.037788967815e-01    8  1  8  1
  1.218883500593e-03    8  2  4  2
  7.535015571925e-03    8  2  5  1
 -7.198012073422e-04    8  2  5  3
  1.087814326405e-02    8  2  8  2
  2.276971280946e-03    8  3  4  1
 -3.034774481279e-02    8  3  4  3
 -3.199571387186e-02    8  3  5  2
 -2.821201801222e-02    8  3  8  1
  2.302611095241e-02    8  3  8  3
  4.869051318609e-03    8  4  1  1
 -1.427059898271e-03    8  4  2  2
  1.210383008779e-02    8  4  3  1
 -3.135544923171e-03    8  4  3  3
  2.745323546582e-03    8  4  4  4
 -1.850726334125e-03    8  4  5  5
 -8.250524009817e-03    8  4  6  6
  1.385753244291e-03    8  4  7  7
  1.554397077130e-02    8  4  8  4
  9.662500636274e-03    8  5  2  1
 -9.168347662593e-04    8  5  3  2
  1.791597996691e-03    8  5  5  4
  7.904840949155e-03    8  5  7  6
  1.266429217286e-02    8  5  8  5
 -3.115040529417e-02    8  6  6  4
  5.391826409536e-02    8  6  7  5
  6.061355587613e-02    8  6  8  6
  5.939255666460e-03    8  7  6  5
  2.978814901535e-03    8  7  7  4
  1.111854357261e-02    8  7  8  7
  3.795727706481e-01    8  8  1  1
  3.551687051233e-01    8  8  2  2
 -1.519884374037e-03    8  8  3  1
  3.467014171435e-01    8  8  3  3
  3.482584502115e-01    8  8  4  4
  3.558292799960e-01    8  8  5  5
  3.688657407149e-01    8  8  6  6
  3.578012570877e-01    8  8  7  7
  8.821575489719e-04    8  8  8  4
  3.962831581808e-01    8  8  8  8
  5.783453705541e-03    9  1  6  5
  2.435735210598e-03    9  1  7  4
  8.051207287610e-03    9  1  8  7
  7.667293566661e-03    9  1  9  1
 -3.271486549072e-02    9  2  6  4
  8.013878369062e-02    9  2  7  5
  5.322622593271e-02    9  2  8  6
  7.909273860237e-02    9  2  9  2
 -7.981667978050e-03    9  3  6  5
  1.312671111301e-02    9  3  7  4
  9.348874746435e-04    9  3  8  7
  3.886698719439e-04    9  3  9  1
  1.367552862371e-02    9  3  9  3
 -5.319432834076e-03    9  4  6  2
  3.597520471575e-03    9  4  7  1
  1.367114877653e-02    9  4  7  3
  1.458342793389e-02    9  4  9  4
  6.658733536792e-02    9  5  6  1
 -5.728362480316e-02    9  5  6  3
  1.033575152030e-01    9  5  7  2
  1.070059793545e-01    9  5  9  5
 -5.754578976181e-03    9  6  4  2
  7.273681278025e-03    9  6  5  1
 -8.234664910501e-03    9  6  5  3
  6.472231959474e-03    9  6  8  2
  1.160279081943e-02    9  6  9  6
  2.938247433706e-02    9  7  4  1
  1.169184382737e-01    9  7  4  3
  1.352278731365e-01    9  7  5  2
  1.027297026098e-01    9  7  8  1
 -3.074679182169e-02    9  7  8  3
  1.422689179621e-01    9  7  9  7
  7.037547815846e-03    9  8  6  2
  9.683797204195e-03    9  8  7  1
  1.254781201810e-03    9  8  7  3
  3.470976216371e-03    9  8  9  4
  1.209805620114e-02    9  8  9  8
  3.468369431173e-01    9  9  1  1
  3.598828025754e-01    9  9  2  2
  1.234145862671e-03    9  9  3  1
  3.354244071095e-01    9  9  3  3
  3.387535388206e-01    9  9  4  4
  3.634153772822e-01    9  9  5  5
  3.436085207726e-01    9  9  6  6
  3.656644132065e-01    9  9  7  7
  6.220824858028e-04    9  9  8  4
  3.592252665780e-01    9  9  8  8
  3.693638674232e-01    9  9  9  9
 -2.797161368442e-02    10  1  6  4
  5.769411492383e-02    10  1  7  5
  6.136619954412e-02    10  1  8  6
  5.694321348841e-02    10  1  9  2
  6.648848258487e-02    10  1  10  1
  7.014559283312e-03    10  2  6  5
  6.917271547635e-04    10  2  7  4
  9.660062848779e-03    10  2  8  7
  7.708038236177e-03    10  2  9  1
 -1.402464312497e-03    10  2  9  3
  8.997384950984e-03    10  2  10  2
  2.100315890180e-02    10  3  6  4
 -1.861277706497e-02    10  3  7  5
 -2.409465853804e-02    10  3  8  6
 -1.835280393891e-02    10  3  9  2
 -1.827219223080e-02    10  3  10  1
  2.013261906336e-02    10  3  10  3
 -9.193617147934e-04    10  4  6  1
  1.343267944741e-02    10  4  6  3
  1.389154552283e-03    10  4  7  2
  3.293382292842e-04    10  4  9  5
  1.529646026282e-02    10  4  10  4
  7.913543799422e-03    10  5  6  2
  9.020718367292e-03    10  5  7  1
 -1.243571778309e-03    10  5  7  3
  8.612929532711e-04    10  5  9  4
  1.053009844285e-02    10  5  9  8
  9.881829921328e-03    10  5  10  5
  2.122980752513e-02    10  6  4  1
  1.075156166163e-01    10  6  4  3
  1.054812054791e-01    10  6  5  2
  1.066567520869e-01    10  6  8  1
 -3.837817718151e-02    10  6  8  3
  1.101309718506e-01    10  6  9  7
  1.190345864047e-01    10  6  10  6
  4.354039713596e-04    10  7  4  2
  8.389142231432e-03    10  7  5  1
 -1.846196981234e-03    10  7  5  3
  1.036867514504e-02    10  7  8  2
  8.393087007992e-03    10  7  9  6
  1.100233612630e-02    10  7  10  7
  8.944467783005e-02    10  8  6  1
 -6.392626103050e-02    10  8  6  3
  9.570582338636e-02    10  8  7  2
  9.749832690684e-02    10  8  9  5
  2.975697053972e-03    10  8  10  4
  1.289672951537e-01    10  8  10  8
  9.941448306179e-03    10  9  2  1
 -1.954756363410e-03    10  9  3  2
  6.499334062512e-04    10  9  5  4
  9.512062022156e-03    10  9  7  6
  1.181466597922e-02    10  9  8  5
  1.220777107122e-02    10  9  10  9
  3.775493957949e-01    10  10  1  1
  3.521927705147e-01    10  10  2  2
 -2.788056124456e-03    10  10  3  1
  3.487653128469e-01    10  10  3  3
  3.502386749319e-01    10  10  4  4
  3.538856633440e-01    10  10  5  5
  3.733527882270e-01    10  10  6  6
  3.572058739201e-01    10  10  7  7
  4.942775695671e-04    10  10  8  4
  3.940636812088e-01    10  10  8  8
  3.593183864056e-01    10  10  9  9
  3.961643053126e-01    10  10  10  10
  3.356648149322e-02    11  1  6  1
 -2.635096276866e-02    11  1  6  3
  3.970676486349e-02    11  1  7  2
  4.180496146294e-02    11  1  9  5
  3.193854266090e-03    11  1  10  4
  4.648670680089e-02    11  1  10  8
  3.379069985597e-02    11  1  11  1
  1.279248278076e-03    11  2  6  2
  2.773560645943e-03    11  2  7  1
  7.179635656156e-04    11  2  7  3
  1.619615163303e-03    11  2  9  4
 -1.692637770811e-03    11  2  9  8
  3.215885391218e-04    11  2  10  5
  1.287331420786e-02    11  2  11  2
  3.708616484020e-02    11  3  6  1
 -3.504837709948e-02    11  3  6  3
  5.117078882302e-02    11  3  7  2
  5.209396328291e-02    11  3  9  5
  4.598202608828e-03    11  3  10  4
  5.983314386414e-02    11  3  10  8
  2.485347299133e-02    11  3  11  1
  4.643620828672e-02    11  3  11  3
 -2.590468644819e-02    11  4  6  4
  4.470460414221e-02    11  4  7  5
  3.652293824331e-02    11  4  8  6
  4.411219769397e-02    11  4  9  2
  4.122469956975e-02    11  4  10  1
 -9.203847730046e-03    11  4  10  3
  4.669621750313e-02    11  4  11  4
  2.390749003589e-03    11  5  6  5
  1.813945006093e-03    11  5  7  4
 -1.250823753768e-03    11  5  8  7
  3.993307099209e-03    11  5  9  1
  6.027846763459e-04    11  5  9  3
  5.926020792649e-04    11  5  10  2
  1.350937457488e-02    11  5  11  5
  2.948109031566e-03    11  6  1  1
 -4.313460186559e-03    11  6  2  2
 -2.097245006124e-03    11  6  3  1
 -1.027699791782e-02    11  6  3  3
 -9.508308965356e-03    11  6  4  4
 -2.191305108102e-03    11  6  5  5
 -1.126811046440e-03    11  6  6  6
 -4.537724595229e-03    11  6  7  7
  1.588800828149e-03    11  6  8  4
 -5.852404561006e-03    11  6  8  8
 -3.255264529069e-03    11  6  9  9
 -2.243437336598e-03    11  6  10  10
  1.796648833864e-02    11  6  11  6
  4.476287927392e-03    11  7  2  1
  2.422286155294e-03    11  7  3  2
  3.581287580332e-03    11  7  5  4
  1.872522104578e-03    11  7  7  6
 -2.609101459399e-03    11  7  8  5
 -1.524257177222e-05    11  7  10  9
  1.665912084794e-02    11  7  11  7
 -6.408130927279e-03    11  8  6  4
  1.124214070905e-02    11  8  7  5
  1.105188578006e-02    11  8  8  6
  1.100426814364e-02    11  8  9  2
  1.633847930921e-02    11  8  10  1
 -1.108185026650e-03    11  8  10  3
  8.998284749948e-03    11  8  11  4
  1.770526660711e-02    11  8  11  8
  3.879370054675e-03    11  9  4  2
  6.681085855879e-03    11  9  5  1
  1.925644243677e-03    11  9  5  3
 -1.492551885353e-03    11  9  8  2
  3.198231371967e-03    11  9  9  6
  8.462740455118e-04    11  9  10  7
  1.620698025737e-02    11  9  11  9
  1.091999773587e-02    11  10  4  1
  3.021227060723e-02    11  10  4  3
  2.903057536845e-02    11  10  5  2
  3.285465572864e-02    11  10  8  1
 -4.408812336744e-03    11  10  8  3
  3.026022880490e-02    11  10  9  7
  3.189803656069e-02    11  10  10  6
  2.472774933926e-02    11  10  11  10
  3.797086049159e-01    11  11  1  1
  3.671948760886e-01    11  11  2  2
  2.906715228348e-03    11  11  3  1
  3.589094460492e-01    11  11  3  3
  3.646324081188e-01    11  11  4  4
  3.705022440862e-01    11  11  5  5
  3.665776073729e-01    11  11  6  6
  3.674805893020e-01    11  11  7  7
 -3.216716349537e-03    11  11  8  4
  3.893576521727e-01    11  11  8  8
  3.711487071057e-01    11  11  9  9
  3.865914857967e-01    11  11  10  10
 -2.342347688030e-03    11  11  11  6
  4.242585947851e-01    11  11  11  11
 -1.042787064615e-02    12  1  6  4
  2.169560432061e-02    12  1  7  5
  1.727560928651e-02    12  1  8  6
  2.134757649015e-02    12  1  9  2
  2.154845151355e-02    12  1  10  1
 -4.688047499662e-03    12  1  10  3
  1.904648702253e-02    12  1  11  4
  1.502535307371e-02    12  1  11  8
  1.912070020989e-02    12  1  12  1
  8.745228638497e-04    12  2  6  5
  1.574069248565e-03    12  2  7  4
 -3.426202335439e-03    12  2  8  7
  2.267589867815e-03    12  2  9  1
  8.281634134593e-04    12  2  9  3
 -1.417214114687e-03    12  2  10  2
  1.338915656550e-02    12  2  11  5
  1.372071874995e-02    12  2  12  2
 -2.654521425176e-02    12  3  6  4
  4.048181774629e-02    12  3  7  5
  3.431949858774e-02    12  3  8  6
  3.996015125913e-02    12  3  9  2
  3.648642040484e-02    12  3  10  1
 -1.123471333884e-02    12  3  10  3
  4.246717867219e-02    12  3  11  4
  4.260389148668e-03    12  3  11  8
  1.388595948159e-02    12  3  12  1
  4.027646200832e-02    12  3  12  3
  4.553128547198e-02    12  4  6  1
 -4.539926697645e-02    12  4  6  3
  6.130453796930e-02    12  4  7  2
  6.329634138075e-02    12  4  9  5
  1.432404294866e-03    12  4  10  4
  7.091967917482e-02    12  4  10  8
  3.376560145681e-02    12  4  11  1
  5.183000788395e-02    12  4  11  3
  6.090515557237e-02    12  4  12  4
  1.873618573566e-04    12  5  6  2
  1.485586224271e-03    12  5  7  1
  7.650543157183e-04    12  5  7  3
  1.438587323162e-03    12  5  9  4
 -3.694586377247e-03    12  5  9  8
 -1.373189549424e-03    12  5  10  5
  1.373920036350e-02    12  5  11  2
  1.505850820327e-02    12  5  12  5
 -2.820352863180e-03    12  6  4  1
 -2.121509624834e-02    12  6  4  3
 -1.176005040366e-02    12  6  5  2
 -8.564576945095e-03    12  6  8  1
  4.850979660967e-03    12  6  8  3
 -1.387119835267e-02    12  6  9  7
 -1.182131870262e-02    12  6  10  6
  9.933722903039e-03    12  6  11  10
  1.654901926163e-02    12  6  12  6
  3.750599525697e-03    12  7  4  2
  4.934859773953e-03    12  7  5  1
  2.264986344847e-03    12  7  5  3
 -3.767268369302e-03    12  7  8  2
  1.476402633371e-03    12  7  9  6
 -1.521854363495e-03    12  7  10  7
  1.618757083884e-02    12  7  11  9
  1.668115106727e-02    12  7  12  7
 -3.799407798961e-03    12  8  6  1
  2.377359281459e-03    12  8  6  3
 -6.177800694990e-03    12  8  7  2
 -5.427344230369e-03    12  8  9  5
  3.313551690209e-03    12  8  10  4
 -8.870771582171e-03    12  8  10  8
  1.100555200334e-02    12  8  11  1
 -6.373021978147e-03    12  8  11  3
 -3.795672849836e-03    12  8  12  4
  1.779106573563e-02    12  8  12  8
  3.069108935757e-03    12  9  2  1
  2.631518327012e-03    12  9  3  2
  3.500405468106e-03    12  9  5  4
  4.186119887298e-04    12  9  7  6
 -4.927445348818e-03    12  9  8  5
 -2.283201623437e-03    12  9  10  9
  1.768416711895e-02    12  9  11  7
  1.927532772026e-02    12  9  12  9
 -3.197221087819e-03    12  10  1  1
 -1.053848575911e-02    12  10  2  2
  2.753704616901e-03    12  10  3  1
 -8.324022962441e-03    12  10  3  3
 -5.279746641388e-03    12  10  4  4
 -8.400051530225e-03    12  10  5  5
 -8.064522256673e-03    12  10  6  6
 -9.686600185940e-03    12  10  7  7
  5.947442305847e-03    12  10  8  4
 -1.448965132784e-02    12  10  8  8
 -8.451806879891e-03    12  10  9  9
 -1.051412654028e-02    12  10  10  10
  1.671643752904e-02    12  10  11  6
 -6.741544140336e-03    12  10  11  11
  2.017883317125e-02    12  10  12  10
  3.875259246322e-02    12  11  4  1
  1.347046779901e-01    12  11  4  3
  1.377746932339e-01    12  11  5  2
  1.199287853548e-01    12  11  8  1
 -4.097645182967e-02    12  11  8  3
  1.396944119769e-01    12  11  9  7
  1.269660747439e-01    12  11  10  6
  3.482110593566e-02    12  11  11  10
 -1.660429798754e-02    12  11  12  6
  1.880454384903e-01    12  11  12  11
  3.828973203778e-01    12  12  1  1
  3.746044417756e-01    12  12  2  2
  1.719737299174e-03    12  12  3  1
  3.647338597114e-01    12  12  3  3
  3.697507756663e-01    12  12  4  4
  3.776551131255e-01    12  12  5  5
  3.717419159123e-01    12  12  6  6
  3.743261890419e-01    12  12  7  7
 -6.594959980088e-03    12  12  8  4
  3.969317090796e-01    12  12  8  8
  3.779875413917e-01    12  12  9  9
  3.926361989837e-01    12  12  10  10
 -8.079523928975e-03    12  12  11  6
  4.332699753920e-01    12  12  11  11
 -1.398300290480e-02    12  12  12  10
  4.456088703323e-01    12  12  12  12
 -2.741021341767e+00    1  1  0  0
 -2.597404348367e+00    2  2  0  0
 -8.900638929162e-03    3  1  0  0
 -2.558311933322e+00    3  3  0  0
 -2.516030965377e+00    4  4  0  0
 -2.514251821223e+00    5  5  0  0
 -2.435843545978e+00    6  6  0  0
 -2.368111249030e+00    7  7  0  0
 -4.480539618334e-04    8  4  0  0
 -2.460504283656e+00    8  8  0  0
 -2.303551695067e+00    9  9  0  0
 -2.249353282481e+00    10  10  0  0
  2.961694624613e-02    11  6  0  0
 -2.138626075651e+00    11  11  0  0
  6.464142324128e-02    12  10  0  0
 -2.108266805780e+00    12  12  0  0
   -137.276229922545   0  0  0  0
