 &FCI NORB=8 ,NELEC=9 ,MS2=1,
  ORBSYM=1,1,1,1,1,1,1,1,
  ISYM=1,
 &END
  7.522251427052e-01    1  1  1  1
  1.113219033012e-01    2  1  2  1
  6.180531393400e-01    2  2  1  1
  5.814613611368e-01    2  2  2  2
  1.113219033012e-01    3  1  3  1
  2.488638585611e-02    3  2  3  2
  6.180531393400e-01    3  3  1  1
  5.316885894246e-01    3  3  2  2
  5.814613611368e-01    3  3  3  3
 -5.993197984507e-02    4  1  1  1
 -2.684108253869e-02    4  1  2  2
 -2.684108253869e-02    4  1  3  3
  5.857331748415e-02    4  1  4  1
  6.413190796667e-03    4  2  2  1
  3.836169145909e-02    4  2  4  2
  6.413190796667e-03    4  3  3  1
  3.836169145909e-02    4  3  4  3
  5.595268427590e-01    4  4  1  1
  5.225243477160e-01    4  4  2  2
  5.225243477160e-01    4  4  3  3
  6.646228475766e-02    4  4  4  1
  7.605272313231e-01    4  4  4  4
 -8.147348622127e-02    5  1  1  1
 -3.840663900725e-02    5  1  2  2
 -3.840663900725e-02    5  1  3  3
  1.035629353033e-02    5  1  4  1
 -3.656114983149e-02    5  1  4  4
  2.907119786881e-02    5  1  5  1
  1.148044569501e-02    5  2  2  1
 -6.774812835959e-03    5  2  4  2
  2.922588770767e-02    5  2  5  2
  1.148044569501e-02    5  3  3  1
 -6.774812835959e-03    5  3  4  3
  2.922588770767e-02    5  3  5  3
  3.828345028382e-02    5  4  1  1
  1.832189300741e-02    5  4  2  2
  1.832189300741e-02    5  4  3  3
  2.359615685452e-02    5  4  4  1
  9.717189434244e-02    5  4  4  4
 -1.862448034347e-02    5  4  5  1
  3.961484660938e-02    5  4  5  4
  4.748761477261e-01    5  5  1  1
  4.702780732487e-01    5  5  2  2
  4.702780732487e-01    5  5  3  3
 -6.871357455241e-02    5  5  4  1
  3.574888556975e-01    5  5  4  4
  1.183155408848e-02    5  5  5  1
 -6.670584824692e-02    5  5  5  4
  7.078235207153e-01    5  5  5  5
 -1.796676696665e-02    6  1  2  1
  1.094487039085e-02    6  1  3  1
 -2.636809943530e-02    6  1  4  2
  1.606273578925e-02    6  1  4  3
  1.279102129016e-02    6  1  5  2
 -7.791945565235e-03    6  1  5  3
  4.037866544780e-02    6  1  6  1
 -4.259265751983e-02    6  2  1  1
 -2.543027190825e-02    6  2  2  2
  9.835495158101e-04    6  2  3  2
 -2.220114185560e-02    6  2  3  3
 -5.593718978917e-02    6  2  4  1
 -1.255811108336e-01    6  2  4  4
  2.668791122365e-02    6  2  5  1
 -5.251380244589e-02    6  2  5  4
  1.031409456574e-01    6  2  5  5
  1.236959693576e-01    6  2  6  2
  2.594629946621e-02    6  3  1  1
  1.352433749430e-02    6  3  2  2
 -1.614565026324e-03    6  3  3  2
  1.549143652592e-02    6  3  3  3
  3.407542900775e-02    6  3  4  1
  7.650062942119e-02    6  3  4  4
 -1.625755651463e-02    6  3  5  1
  3.198999366819e-02    6  3  5  4
 -6.283068535954e-02    6  3  5  5
 -6.474576086500e-02    6  3  6  2
  5.685266708294e-02    6  3  6  3
 -5.020400800728e-02    6  4  2  1
  3.058292912469e-02    6  4  3  1
 -2.458339884317e-02    6  4  4  2
  1.497554427040e-02    6  4  4  3
 -1.454702148986e-02    6  4  5  2
  8.861653578244e-03    6  4  5  3
  1.952680371118e-02    6  4  6  1
  6.124107693031e-02    6  4  6  4
  2.854925140313e-02    6  5  2  1
 -1.739143480533e-02    6  5  3  1
 -1.535631251320e-02    6  5  4  2
  9.354651866437e-03    6  5  4  3
  2.922488896203e-02    6  5  5  2
 -1.780301500376e-02    6  5  5  3
  1.519231348727e-02    6  5  6  1
 -1.785939186520e-02    6  5  6  4
  5.147978096260e-02    6  5  6  5
  5.885457630629e-01    6  6  1  1
  5.598091575076e-01    6  6  2  2
 -1.982372219609e-02    6  6  3  2
  5.393432144519e-01    6  6  3  3
 -1.670493114405e-02    6  6  4  1
  5.378840565233e-01    6  6  4  4
 -2.459683500529e-02    6  6  5  1
  1.157792177260e-02    6  6  5  4
  5.065218265501e-01    6  6  5  5
 -1.609126214935e-02    6  6  6  2
  9.802363384395e-03    6  6  6  3
  5.881820435585e-01    6  6  6  6
 -1.094487039085e-02    7  1  2  1
 -1.796676696666e-02    7  1  3  1
 -1.606273578925e-02    7  1  4  2
 -2.636809943530e-02    7  1  4  3
  7.791945565235e-03    7  1  5  2
  1.279102129016e-02    7  1  5  3
  4.037866544780e-02    7  1  7  1
 -2.594629946621e-02    7  2  1  1
 -1.549143652592e-02    7  2  2  2
 -1.614565026324e-03    7  2  3  2
 -1.352433749430e-02    7  2  3  3
 -3.407542900775e-02    7  2  4  1
 -7.650062942119e-02    7  2  4  4
  1.625755651463e-02    7  2  5  1
 -3.198999366819e-02    7  2  5  4
  6.283068535954e-02    7  2  5  5
  6.474576086500e-02    7  2  6  2
 -2.203007930541e-02    7  2  6  3
 -9.085074782253e-03    7  2  6  6
  5.685266708294e-02    7  2  7  2
 -4.259265751983e-02    7  3  1  1
 -2.220114185560e-02    7  3  2  2
 -9.835495158099e-04    7  3  3  2
 -2.543027190825e-02    7  3  3  3
 -5.593718978917e-02    7  3  4  1
 -1.255811108336e-01    7  3  4  4
  2.668791122365e-02    7  3  5  1
 -5.251380244589e-02    7  3  5  4
  1.031409456574e-01    7  3  5  5
  8.887338158006e-02    7  3  6  2
 -6.474576086500e-02    7  3  6  3
 -1.491378295569e-02    7  3  6  6
  6.474576086500e-02    7  3  7  2
  1.236959693576e-01    7  3  7  3
 -3.058292912469e-02    7  4  2  1
 -5.020400800728e-02    7  4  3  1
 -1.497554427040e-02    7  4  4  2
 -2.458339884317e-02    7  4  4  3
 -8.861653578244e-03    7  4  5  2
 -1.454702148986e-02    7  4  5  3
  1.952680371118e-02    7  4  7  1
  6.124107693031e-02    7  4  7  4
  1.739143480533e-02    7  5  2  1
  2.854925140313e-02    7  5  3  1
 -9.354651866437e-03    7  5  4  2
 -1.535631251320e-02    7  5  4  3
  1.780301500376e-02    7  5  5  2
  2.922488896203e-02    7  5  5  3
  1.519231348727e-02    7  5  7  1
 -1.785939186520e-02    7  5  7  4
  5.147978096260e-02    7  5  7  5
  1.982372219609e-02    7  6  2  2
  1.023297152786e-02    7  6  3  2
 -1.982372219609e-02    7  6  3  3
 -3.586443010710e-04    7  6  6  2
 -5.887395968294e-04    7  6  6  3
 -5.887395968295e-04    7  6  7  2
  3.586443010710e-04    7  6  7  3
  2.446053853172e-02    7  6  7  6
  5.885457630629e-01    7  7  1  1
  5.393432144519e-01    7  7  2  2
  1.982372219609e-02    7  7  3  2
  5.598091575076e-01    7  7  3  3
 -1.670493114405e-02    7  7  4  1
  5.378840565233e-01    7  7  4  4
 -2.459683500529e-02    7  7  5  1
  1.157792177260e-02    7  7  5  4
  5.065218265501e-01    7  7  5  5
 -1.491378295569e-02    7  7  6  2
  9.085074782253e-03    7  7  6  3
  5.392609664950e-01    7  7  6  6
 -9.802363384395e-03    7  7  7  2
 -1.609126214935e-02    7  7  7  3
  5.881820435585e-01    7  7  7  7
  6.362997864067e-02    8  1  1  1
  3.288088220175e-02    8  1  2  2
  3.288088220174e-02    8  1  3  3
  3.023634971382e-02    8  1  4  1
  7.372628777670e-02    8  1  4  4
 -3.007155423947e-02    8  1  5  1
  3.052732216417e-02    8  1  5  4
 -4.170729875235e-02    8  1  5  5
 -8.043593224720e-02    8  1  6  2
  4.899940288907e-02    8  1  6  3
  2.702965156058e-02    8  1  6  6
 -4.899940288907e-02    8  1  7  2
 -8.043593224720e-02    8  1  7  3
  2.702965156058e-02    8  1  7  7
  9.711859183395e-02    8  1  8  1
  1.547330463434e-03    8  2  2  1
  1.847698315457e-02    8  2  4  2
 -1.376281000346e-02    8  2  5  2
 -2.805130553681e-02    8  2  6  1
  3.459952604931e-04    8  2  6  4
 -8.862478857439e-03    8  2  6  5
 -1.708809959880e-02    8  2  7  1
  2.107709911847e-04    8  2  7  4
 -5.398783354644e-03    8  2  7  5
  3.592190521823e-02    8  2  8  2
  1.547330463434e-03    8  3  3  1
  1.847698315457e-02    8  3  4  3
 -1.376281000346e-02    8  3  5  3
  1.708809959880e-02    8  3  6  1
 -2.107709911847e-04    8  3  6  4
  5.398783354644e-03    8  3  6  5
 -2.805130553681e-02    8  3  7  1
  3.459952604931e-04    8  3  7  4
 -8.862478857439e-03    8  3  7  5
  3.592190521823e-02    8  3  8  3
  2.333112461701e-02    8  4  1  1
  1.772833923683e-02    8  4  2  2
  1.772833923683e-02    8  4  3  3
 -3.144749088683e-02    8  4  4  1
 -7.933351080927e-02    8  4  4  4
  1.679123185272e-03    8  4  5  1
 -2.683765332554e-02    8  4  5  4
  2.884641930806e-02    8  4  5  5
  3.768804174327e-02    8  4  6  2
 -2.295853967109e-02    8  4  6  3
  1.033160771510e-02    8  4  6  6
  2.295853967109e-02    8  4  7  2
  3.768804174327e-02    8  4  7  3
  1.033160771510e-02    8  4  7  7
 -3.046084364708e-02    8  4  8  1
  4.633037687802e-02    8  4  8  4
 -4.585398597607e-02    8  5  1  1
 -2.442760707952e-02    8  5  2  2
 -2.442760707952e-02    8  5  3  3
 -1.501749545278e-02    8  5  4  1
 -6.357226498470e-02    8  5  4  4
  1.727384735649e-02    8  5  5  1
 -3.364115754810e-02    8  5  5  4
  9.899349946674e-02    8  5  5  5
  4.592029326236e-02    8  5  6  2
 -2.797340551026e-02    8  5  6  3
 -1.170822200021e-02    8  5  6  6
  2.797340551026e-02    8  5  7  2
  4.592029326236e-02    8  5  7  3
 -1.170822200021e-02    8  5  7  7
 -3.793890020798e-02    8  5  8  1
  1.388844376214e-02    8  5  8  4
  6.204356689788e-02    8  5  8  5
 -5.696909085194e-02    8  6  2  1
  3.470403533459e-02    8  6  3  1
  2.464611270216e-03    8  6  4  2
 -1.501374786372e-03    8  6  4  3
 -5.146440780790e-03    8  6  5  2
  3.135073072662e-03    8  6  5  3
  8.214025456752e-03    8  6  6  1
  3.066129828681e-02    8  6  6  4
 -2.138875713593e-02    8  6  6  5
  1.778289106351e-03    8  6  8  2
 -1.083285814448e-03    8  6  8  3
  4.986364022920e-02    8  6  8  6
 -3.470403533459e-02    8  7  2  1
 -5.696909085194e-02    8  7  3  1
  1.501374786372e-03    8  7  4  2
  2.464611270216e-03    8  7  4  3
 -3.135073072662e-03    8  7  5  2
 -5.146440780790e-03    8  7  5  3
  8.214025456752e-03    8  7  7  1
  3.066129828681e-02    8  7  7  4
 -2.138875713593e-02    8  7  7  5
  1.083285814448e-03    8  7  8  2
  1.778289106351e-03    8  7  8  3
  4.986364022920e-02    8  7  8  7
  7.005633970391e-01    8  8  1  1
  6.001428801006e-01    8  8  2  2
  6.001428801006e-01    8  8  3  3
 -5.666900590844e-02    8  8  4  1
  5.580382806393e-01    8  8  4  4
 -5.909492507315e-02    8  8  5  1
  2.092887873361e-02    8  8  5  4
  5.464768123530e-01    8  8  5  5
 -1.314153090159e-02    8  8  6  2
  8.005466577389e-03    8  8  6  3
  5.985807338783e-01    8  8  6  6
 -8.005466577389e-03    8  8  7  2
 -1.314153090159e-02    8  8  7  3
  5.985807338783e-01    8  8  7  7
  4.320348405197e-02    8  8  8  1
  1.314150919229e-02    8  8  8  4
 -1.459206307227e-02    8  8  8  5
  7.096957849157e-01    8  8  8  8
 -5.820140938712e+00    1  1  0  0
 -4.748165344211e+00    2  2  0  0
 -4.748165344211e+00    3  3  0  0
  1.719949113542e-01    4  1  0  0
 -4.702973009302e+00    4  4  0  0
  3.431394098349e-01    5  1  0  0
 -1.832059451852e-01    5  4  0  0
 -4.032989984534e+00    5  5  0  0
  2.734684775293e-01    6  2  0  0
 -1.665896289576e-01    6  3  0  0
 -4.230178995644e+00    6  6  0  0
  1.665896289576e-01    7  2  0  0
  2.734684775293e-01    7  3  0  0
 -4.230178995644e+00    7  7  0  0
 -3.206266932242e-01    8  1  0  0
 -1.670313408150e-02    8  4  0  0
  2.320685303184e-01    8  5  0  0
 -3.713585826570e+00    8  8  0  0
    -65.634825014652   0  0  0  0
