 &FCI NORB=8 ,NELEC=10 ,MS2=0,
  ORBSYM=1,3,1,2,3,2,1,3,
  ISYM=1,
 &END
  8.698280607930e-01    1  1  1  1
  2.811844746772e-02    2  1  2  1
  3.887415819583e-01    2  2  1  1
  4.799250391735e-01    2  2  2  2
 -3.429663579972e-02    3  1  1  1
  1.530402882767e-02    3  1  2  2
  2.758991500409e-02    3  1  3  1
  1.222886341183e-02    3  2  2  1
  3.144813811777e-02    3  2  3  2
  5.778781617913e-01    3  3  1  1
  4.989848007990e-01    3  3  2  2
  4.474836955888e-02    3  3  3  1
  8.612177659030e-01    3  3  3  3
  7.595184400958e-02    4  1  4  1
  1.390994606850e-02    4  2  4  2
  3.289413232175e-02    4  3  4  1
  5.924317221589e-02    4  3  4  3
  5.846323334152e-01    4  4  1  1
  4.269366288348e-01    4  4  2  2
  2.244257935699e-02    4  4  3  1
  6.197228419708e-01    4  4  3  3
  5.766983096569e-01    4  4  4  4
  4.968979842202e-02    5  1  2  1
  2.477342151372e-02    5  1  3  2
  9.851590844796e-02    5  1  5  1
  2.039328228980e-01    5  2  1  1
 -1.468255552577e-02    5  2  2  2
  7.231529253785e-03    5  2  3  1
  1.244647801380e-01    5  2  3  3
  1.078251640854e-01    5  2  4  4
  1.373720117851e-01    5  2  5  2
  1.564881920843e-02    5  3  2  1
  2.502523948032e-02    5  3  3  2
  3.282848431721e-02    5  3  5  1
  3.675320711156e-02    5  3  5  3
  9.661491438709e-03    5  4  4  2
  1.937226019042e-02    5  4  5  4
  6.109940729469e-01    5  5  1  1
  4.407187494964e-01    5  5  2  2
  1.854287202403e-02    5  5  3  1
  5.757503933277e-01    5  5  3  3
  5.140394068576e-01    5  5  4  4
  1.254102849021e-01    5  5  5  2
  5.709129050429e-01    5  5  5  5
 -7.034984766539e-02    6  1  4  1
 -3.236063484382e-02    6  1  4  3
  7.098644555681e-02    6  1  6  1
  3.756614874928e-03    6  2  4  2
 -1.023148471756e-02    6  2  5  4
  1.431076139707e-02    6  2  6  2
 -1.604851571592e-02    6  3  4  1
 -9.426576581048e-03    6  3  4  3
  1.136800788471e-02    6  3  6  1
  2.316897470771e-02    6  3  6  3
 -2.429632325615e-01    6  4  1  1
  1.052806638203e-02    6  4  2  2
 -6.592413277270e-03    6  4  3  1
 -1.011286974782e-01    6  4  3  3
 -1.188090756981e-01    6  4  4  4
 -1.182657888276e-01    6  4  5  2
 -1.332421784327e-01    6  4  5  5
  1.896520549791e-01    6  4  6  4
 -1.225747294011e-02    6  5  4  2
 -1.413519235315e-02    6  5  5  4
  3.130473770001e-03    6  5  6  2
  1.684029374068e-02    6  5  6  5
  5.700906387307e-01    6  6  1  1
  4.565529021909e-01    6  6  2  2
  1.488604915527e-02    6  6  3  1
  6.115216478671e-01    6  6  3  3
  5.713511568732e-01    6  6  4  4
  7.818414017682e-02    6  6  5  2
  5.140573391997e-01    6  6  5  5
 -8.616749312394e-02    6  6  6  4
  6.053591829006e-01    6  6  6  6
 -9.205720143808e-02    7  1  1  1
  1.988771451126e-02    7  1  2  2
  3.181819408365e-02    7  1  3  1
  4.212598733678e-02    7  1  3  3
  7.029601106105e-03    7  1  4  4
 -1.425009188774e-02    7  1  5  2
 -8.624554552974e-03    7  1  5  5
  2.855457864017e-02    7  1  6  4
  4.224608233142e-03    7  1  6  6
  5.121188452553e-02    7  1  7  1
  6.398184054528e-03    7  2  2  1
 -6.534011839879e-03    7  2  3  2
  5.273533215352e-03    7  2  5  1
  1.010545174090e-02    7  2  5  3
  2.236053700394e-02    7  2  7  2
  1.864422583671e-01    7  3  1  1
 -1.602069808261e-02    7  3  2  2
  1.733603038336e-02    7  3  3  1
  1.083652778472e-01    7  3  3  3
  8.894982564769e-02    7  3  4  4
  1.088198904573e-01    7  3  5  2
  1.217156033045e-01    7  3  5  5
 -1.531544913584e-01    7  3  6  4
  6.357289753289e-02    7  3  6  6
 -2.049052215473e-02    7  3  7  1
  2.005420855635e-01    7  3  7  3
  1.475529098647e-02    7  4  4  1
  6.040480351102e-03    7  4  4  3
 -7.632485841631e-03    7  4  6  1
 -2.655787167187e-02    7  4  6  3
  3.185173364663e-02    7  4  7  4
  1.047220781154e-02    7  5  2  1
  2.015442206695e-02    7  5  3  2
  1.834378410545e-02    7  5  5  1
  2.302335636063e-02    7  5  5  3
  6.586993446746e-03    7  5  7  2
  2.363984898849e-02    7  5  7  5
 -1.750016582699e-02    7  6  4  1
 -4.635614613867e-02    7  6  4  3
  2.187945814501e-02    7  6  6  1
  3.029636611827e-03    7  6  6  3
  1.102938621279e-03    7  6  7  4
  4.748218223575e-02    7  6  7  6
  6.045076499075e-01    7  7  1  1
  5.072241172833e-01    7  7  2  2
  2.331526896407e-02    7  7  3  1
  7.948640886881e-01    7  7  3  3
  6.101996348714e-01    7  7  4  4
  1.068347036511e-01    7  7  5  2
  5.745600781590e-01    7  7  5  5
 -9.261031957040e-02    7  7  6  4
  6.331587436491e-01    7  7  6  6
  1.882850518645e-02    7  7  7  1
  9.342544930401e-02    7  7  7  3
  8.003788414740e-01    7  7  7  7
 -2.561551885654e-02    8  1  2  1
 -1.083824628217e-02    8  1  3  2
 -4.969853285807e-02    8  1  5  1
 -1.338006493840e-02    8  1  5  3
 -2.425306156760e-03    8  1  7  2
 -8.900165855790e-03    8  1  7  5
  4.039571137631e-02    8  1  8  1
 -6.703487502966e-02    8  2  1  1
  5.232097586263e-03    8  2  2  2
 -6.498181500885e-04    8  2  3  1
  1.366085319760e-03    8  2  3  3
 -1.331844876204e-02    8  2  4  4
 -2.215019974162e-02    8  2  5  2
 -5.032867649845e-02    8  2  5  5
  5.361897656245e-02    8  2  6  4
 -1.700231999347e-02    8  2  6  6
  1.650241736600e-02    8  2  7  1
 -6.088912746276e-02    8  2  7  3
 -9.255660136428e-03    8  2  7  7
  5.420242101643e-02    8  2  8  2
 -4.720975709536e-03    8  3  2  1
  6.733660948321e-03    8  3  3  2
  5.015499108968e-05    8  3  5  1
 -1.234438629630e-03    8  3  5  3
 -1.732806372884e-02    8  3  7  2
 -9.640672083294e-03    8  3  7  5
  4.729705261318e-03    8  3  8  1
  2.386306443527e-02    8  3  8  3
  1.043655565504e-03    8  4  4  2
 -6.424201348254e-03    8  4  5  4
  8.868991539920e-03    8  4  6  2
  7.524937670570e-03    8  4  6  5
  1.255101845136e-02    8  4  8  4
 -2.121216304088e-01    8  5  1  1
 -4.246229709022e-02    8  5  2  2
 -3.692675680735e-03    8  5  3  1
 -1.455425353058e-01    8  5  3  3
 -1.272361557239e-01    8  5  4  4
 -1.004255913151e-01    8  5  5  2
 -1.518113614019e-01    8  5  5  5
  1.041150867799e-01    8  5  6  4
 -1.292742180363e-01    8  5  6  6
  1.721701194417e-02    8  5  7  1
 -1.002042062018e-01    8  5  7  3
 -1.597467990659e-01    8  5  7  7
  4.388433463996e-02    8  5  8  2
  1.250407359827e-01    8  5  8  5
  1.051420934581e-02    8  6  4  2
  1.152912487943e-02    8  6  5  4
 -1.905564825381e-03    8  6  6  2
 -1.267018467230e-02    8  6  6  5
 -4.425490761954e-03    8  6  8  4
  1.367517763084e-02    8  6  8  6
 -4.115915491289e-03    8  7  2  1
 -2.508276701889e-02    8  7  3  2
 -1.773151266241e-02    8  7  5  1
 -2.631865426175e-02    8  7  5  3
  4.896991679914e-03    8  7  7  2
 -1.907727647955e-02    8  7  7  5
  6.412747901813e-03    8  7  8  1
 -7.378764876781e-03    8  7  8  3
  3.436108779000e-02    8  7  8  7
  5.628043688250e-01    8  8  1  1
  4.274623783713e-01    8  8  2  2
  1.365646979695e-02    8  8  3  1
  5.605363585174e-01    8  8  3  3
  4.947766233933e-01    8  8  4  4
  1.114570485179e-01    8  8  5  2
  5.275862870560e-01    8  8  5  5
 -1.092431720593e-01    8  8  6  4
  4.978697427942e-01    8  8  6  6
 -6.696463859929e-03    8  8  7  1
  9.306739932894e-02    8  8  7  3
  5.652554983491e-01    8  8  7  7
 -2.749154335674e-02    8  8  8  2
 -1.368361459859e-01    8  8  8  5
  5.170754198723e-01    8  8  8  8
 -5.921086168416e+00    1  1  0  0
 -4.459417281154e+00    2  2  0  0
 -3.677975069419e-01    3  1  0  0
 -6.226802014825e+00    3  3  0  0
 -5.182323830999e+00    4  4  0  0
 -8.818413355250e-01    5  2  0  0
 -4.976858366710e+00    5  5  0  0
  9.271877386499e-01    6  4  0  0
 -4.813890919223e+00    6  6  0  0
  3.749301831791e-02    7  1  0  0
 -7.591686775673e-01    7  3  0  0
 -4.906729125708e+00    7  7  0  0
  1.252741259523e-01    8  2  0  0
  1.084232550321e+00    8  5  0  0
 -3.851674286679e+00    8  8  0  0
    -83.581646281957   0  0  0  0
