 &FCI NORB=6 ,NELEC=4 ,MS2=0,
  ORBSYM=1,1,1,1,1,1,
  ISYM=1,
 &END
  1.026907168877e+00    1  1  1  1
  5.291791159694e-06    2  2  1  1
  6.577948904034e-01    2  2  2  2
  2.804839378782e-11    3  2  1  1
  7.781102839750e-02    3  2  3  2
  5.291791160104e-06    3  3  1  1
  4.329949399320e-01    3  3  2  2
  3.847599077350e-01    3  3  3  3
  1.698671184571e-01    4  2  2  2
  4.853777545629e-02    4  2  3  3
  1.103825099159e-01    4  2  4  2
 -2.873911185509e-11    4  3  1  1
 -2.104310580974e-02    4  3  3  2
  3.650932206965e-02    4  3  4  3
  5.291791159671e-06    4  4  1  1
  5.340997292371e-01    4  4  2  2
  3.799466183057e-01    4  4  3  3
  1.197034988212e-01    4  4  4  2
  4.629295969680e-01    4  4  4  4
 -3.164904703507e-01    5  1  1  1
  2.276704952667e-01    5  1  5  1
  8.581333344373e-01    5  5  1  1
  5.291791159694e-06    5  5  2  2
  2.804839378615e-11    5  5  3  2
  5.291791160104e-06    5  5  3  3
 -2.873911185232e-11    5  5  4  3
  5.291791159671e-06    5  5  4  4
 -2.555535457830e-01    5  5  5  1
  7.663628962112e-01    5  5  5  5
  6.124280582623e-12    6  2  1  1
  7.888286427392e-02    6  2  3  2
  1.945491746975e-02    6  2  4  3
  6.124280583540e-12    6  2  5  5
  1.398149841512e-01    6  2  6  2
  1.433975713940e-01    6  3  2  2
  5.341400858076e-02    6  3  3  3
  7.225760638296e-02    6  3  4  2
  9.657424013872e-02    6  3  4  4
  6.608822804704e-02    6  3  6  3
  2.614449375592e-11    6  4  1  1
  8.023213702209e-02    6  4  3  2
  6.115163960441e-04    6  4  4  3
  2.614449375845e-11    6  4  5  5
  1.223157712842e-01    6  4  6  2
  1.236786871538e-01    6  4  6  4
  5.291791159883e-06    6  6  1  1
  6.716003718304e-01    6  6  2  2
  4.416836679640e-01    6  6  3  3
  2.038777535899e-01    6  6  4  2
  5.537306733222e-01    6  6  4  4
  5.291791159883e-06    6  6  5  5
  1.675122140787e-01    6  6  6  3
  7.500250236745e-01    6  6  6  6
 -1.941044381098e+00    1  1  0  0
 -1.259768862883e+00    2  2  0  0
 -5.609655512140e-11    3  2  0  0
 -5.443908452247e-01    3  3  0  0
 -1.698670835382e-01    4  2  0  0
  5.747786956877e-11    4  3  0  0
 -1.926908580030e-01    4  4  0  0
  3.164904703503e-01    5  1  0  0
 -8.874742193572e-02    5  5  0  0
 -1.224803914609e-11    6  2  0  0
 -2.079123110914e-01    6  3  0  0
 -5.228861693134e-11    6  4  0  0
  2.281943150233e-01    6  6  0  0
      0.734989515665   0  0  0  0
