 &FCI NORB=4 ,NELEC=6 ,MS2=0,
  ORBSYM=2,1,3,1,
  ISYM=1,
 &END
  7.708073798986e-01    1  1  1  1
  1.748150824153e-01    2  1  2  1
  7.626174717135e-01    2  2  1  1
  8.074817765240e-01    2  2  2  2
  3.544557765341e-02    3  1  3  1
  1.296565501603e-01    3  2  3  2
  6.833840518118e-01    3  3  1  1
  7.391147273877e-01    3  3  2  2
  7.704034597161e-01    3  3  3  3
 -7.605432275423e-02    4  1  2  1
  6.233004313264e-02    4  1  4  1
  1.835150945131e-02    4  2  1  1
  5.943320316305e-02    4  2  2  2
  1.138020624674e-01    4  2  3  3
  7.931977925284e-02    4  2  4  2
  1.224406329536e-01    4  3  3  2
  1.425978476729e-01    4  3  4  3
  6.893382596830e-01    4  4  1  1
  7.302985793999e-01    4  4  2  2
  7.330315009174e-01    4  4  3  3
  8.284025068661e-02    4  4  4  2
  7.441096505137e-01    4  4  4  4
 -4.262468159646e+00    1  1  0  0
 -5.022925254867e+00    2  2  0  0
 -3.975415159220e+00    3  3  0  0
 -2.777105607626e-01    4  2  0  0
 -1.985435890884e+00    4  4  0  0
    -59.666632990394   0  0  0  0
