 &FCI NORB=8,NELEC=12,MS2=0,
  ORBSYM=1,1,1,1,1,1,1,1,
  ISYM=1,
 &END
0.7708742773556544    1  1  1  1
0.1205093523204359    2  1  2  1
0.5778422774895006    2  2  1  1
0.5926979379659612    2  2  2  2
0.09673456593005447    3  1  3  1
0.06224725606559751    3  2  3  2
0.6392614446600174    3  3  1  1
0.5565103442391345    3  3  2  2
0.6066378732198779    3  3  3  3
0.1322325403406498    4  1  1  1
-0.000120882390100348    4  1  2  2
0.0559740452612713    4  1  3  3
0.08714463161011789    4  1  4  1
-0.1253654239803728    4  2  2  1
0.1941503667417861    4  2  4  2
-0.01023829175730143    4  3  3  1
0.02623622891941773    4  3  4  3
0.6111148197168692    4  4  1  1
0.5962895372933121    4  4  2  2
0.557399857228965    4  4  3  3
0.0260258841753211    4  4  4  1
0.6276603578008265    4  4  4  4
0.09708425843417597    5  1  5  1
0.06036757112187174    5  2  5  2
0.02244177814861949    5  3  5  3
-0.008948432142590407    5  4  5  1
0.02527919487736149    5  4  5  4
0.6365730856607429    5  5  1  1
0.5516515254660388    5  5  2  2
0.5583447928679494    5  5  3  3
0.05706022900024178    5  5  4  1
0.552711825601777    5  5  4  4
0.6000148518823689    5  5  5  5
0.05616998102706804    6  1  3  2
0.05519332653341399    6  1  6  1
0.08170885717164911    6  2  3  1
-0.03188344699452317    6  2  4  3
0.09126366668170782    6  2  6  2
0.1530575591537545    6  3  2  1
-0.1545304500405235    6  3  4  2
0.2191273393530379    6  3  6  3
-0.03623709837941034    6  4  3  2
-0.02504414344234649    6  4  6  1
0.03449832330758985    6  4  6  4
0.01872808722487524    6  5  6  5
0.6167105490144434    6  6  1  1
0.573763565144802    6  6  2  2
0.6013235778896588    6  6  3  3
0.03255373041980907    6  6  4  1
0.570124732494509    6  6  4  4
0.5536748852232897    6  6  5  5
0.6106989614824204    6  6  6  6
0.05699498888487105    7  1  5  2
0.05926125920175297    7  1  7  1
0.08265683609708703    7  2  5  1
-0.03063460552331261    7  2  5  4
0.0933797818483203    7  2  7  2
0.01938657531040053    7  3  6  5
0.02013462016963125    7  3  7  3
-0.03499921680579333    7  4  5  2
-0.02454506786977264    7  4  7  1
0.03443298681826867    7  4  7  4
0.1550186838442448    7  5  2  1
-0.1544615772531876    7  5  4  2
0.1832425956130737    7  5  6  3
0.2251497481991512    7  5  7  5
0.02204244703313156    7  6  5  3
0.02438470773129918    7  6  7  6
0.6436425305811567    7  7  1  1
0.5933110486856291    7  7  2  2
0.5787320967649644    7  7  3  3
0.03803117303462718    7  7  4  1
0.5904509646282005    7  7  4  4
0.6190836804579511    7  7  5  5
0.5852155549383298    7  7  6  6
0.6602645420198666    7  7  7  7
0.08200455341075592    8  1  2  1
-0.02347277634442158    8  1  4  2
0.104777430277398    8  1  6  3
0.108535628937496    8  1  7  5
0.1308270753382849    8  1  8  1
0.08636972448981939    8  2  1  1
-0.0143085434617497    8  2  2  2
0.04499861051725807    8  2  3  3
0.0596176367422482    8  2  4  1
-0.01718144938151467    8  2  4  4
0.04595327744618455    8  2  5  5
0.0273694930282995    8  2  6  6
0.03147660371444096    8  2  7  7
0.0644578910014359    8  2  8  2
0.02198860598062774    8  3  3  2
0.03023943588219187    8  3  6  1
0.005076035060092529    8  3  6  4
0.03204585418931457    8  3  8  3
0.1249233358675521    8  4  2  1
-0.1453747430834683    8  4  4  2
0.151158406649346    8  4  6  3
0.1535693774935497    8  4  7  5
0.09255072934671907    8  4  8  1
0.1689141414906015    8  4  8  4
0.02216744059676947    8  5  5  2
0.0320299205022047    8  5  7  1
0.00538015601318251    8  5  7  4
0.03177500106365207    8  5  8  5
0.04443405794589295    8  6  3  1
0.01036558752628185    8  6  4  3
0.02526001833930954    8  6  6  2
0.03536592669438914    8  6  8  6
0.04754526232300534    8  7  5  1
0.01081804946766906    8  7  5  4
0.02830405140504299    8  7  7  2
0.03984439795931011    8  7  8  7
0.7851388105715573    8  8  1  1
0.6307072403736026    8  8  2  2
0.6608291042239438    8  8  3  3
0.1171950901900625    8  8  4  1
0.6758706983867173    8  8  4  4
0.656072115462077    8  8  5  5
0.6544343385522448    8  8  6  6
0.6866688166073307    8  8  7  7
0.06279753003948757    8  8  8  2
0.8679619356285516    8  8  8  8
-8.152869464324832    1  1  0  0
-0.6065513014628277    4  1  0  0
-3.147882828384923e-15    8  1  0  0
-6.885785458591986    2  2  0  0
-0.3553736624195181    8  2  0  0
-6.763381735033453    3  3  0  0
-0.6065513014628273    1  4  0  0
-6.769470353031124    4  4  0  0
3.506974645239469e-15    8  4  0  0
-6.727289439235999    5  5  0  0
-6.479300247524847    6  6  0  0
-6.692520060912658    7  7  0  0
-3.499238365757114e-15    1  8  0  0
-0.3553736624195188    2  8  0  0
2.299751316429149e-15    4  8  0  0
-7.009582638512208    8  8  0  0
-102.3832835600539  0  0  0  0

