 &FCI NORB=  10,NELEC=14,MS2=0,
  ORBSYM=1,1,1,1,1,1,1,1,1,1,
  ISYM=1,
 &END
 4.269852604891367    1    1    1    1
 -0.06470313770737228    1    1    2    1
 0.9876347055832331    1    1    2    2
 0.9854957834341586    1    1    3    3
 0.9854957834341586    1    1    4    4
 -0.04871881243648425    1    1    5    1
 0.09116228634465999    1    1    5    2
 1.874366432355138e-15    1    1    5    4
 1.077486807608978    1    1    5    5
 -0.002184815794081306    1    1    6    1
 -0.008760768799550872    1    1    6    2
 -0.0113826410702247    1    1    6    5
 0.4988146406844235    1    1    6    6
 0.100286842410649    1    1    7    1
 -0.05268435541368559    1    1    7    2
 -1.355980166506288e-15    1    1    7    4
 -0.1083824309595932    1    1    7    5
 0.008670432915206458    1    1    7    6
 0.4914617506342482    1    1    7    7
 -0.01999836526677152    1    1    8    3
 0.4446306496233978    1    1    8    8
 -0.01999836526677178    1    1    9    4
 0.4446306496233977    1    1    9    9
 -0.1000965376176656    1    1   10    1
 -0.05354235898070628    1    1   10    2
 -0.003216984164313652    1    1   10    5
 -0.003248255376918918    1    1   10    6
 -0.1187378988024206    1    1   10    7
 0.4793184160771965    1    1   10   10
 -0.06470313770737389    2    1    1    1
 0.01661458886628604    2    1    2    1
 0.01992758605444709    2    1    2    2
 0.01890638020900043    2    1    3    3
 0.01890638020900043    2    1    4    4
 0.006708068409844478    2    1    5    1
 0.009089977310781363    2    1    5    2
 0.0232953916017267    2    1    5    5
 -7.753227618146043e-05    2    1    6    1
 -0.0003272782678707182    2    1    6    2
 -0.000352477379602819    2    1    6    5
 0.008670432915205877    2    1    6    6
 -0.005029291542423742    2    1    7    1
 -0.00236766574748563    2    1    7    2
 -0.002990397512752075    2    1    7    5
 0.0003890062100129681    2    1    7    6
 0.007038999622638998    2    1    7    7
 -0.0007429637587957482    2    1    8    3
 0.005575244458490126    2    1    8    8
 -0.0007429637587957523    2    1    9    4
 0.005575244458490126    2    1    9    9
 0.002222840324776027    2    1   10    1
 -0.001397800144773265    2    1   10    2
 -0.001290103799443144    2    1   10    5
 -0.000202468540711381    2    1   10    6
 -0.002780021227300901    2    1   10    7
 0.007726071634640544    2    1   10   10
 0.9876347055832304    2    2    1    1
 0.01992758605444772    2    2    2    1
 0.7365891391997197    2    2    2    2
 0.7328577041318077    2    2    3    3
 1.078264804377907e-15    2    2    4    2
 0.7328577041318077    2    2    4    4
 0.0009334302761037883    2    2    5    1
 0.04636339166881039    2    2    5    2
 1.378078220656179e-15    2    2    5    4
 0.7441004795621986    2    2    5    5
 -0.0003878198390889329    2    2    6    1
 -0.005396596411646838    2    2    6    2
 -0.006279071952280392    2    2    6    5
 0.4914617506342461    2    2    6    6
 0.006457507464088821    2    2    7    1
 -0.02406054414798092    2    2    7    2
 -1.018911010022182e-15    2    2    7    4
 -0.04014463733809227    2    2    7    5
 0.007038999622639487    2    2    7    6
 0.4521679962347271    2    2    7    7
 -0.002126933497070674    2    2    8    3
 0.4291914486468877    2    2    8    8
 -0.002126933497070896    2    2    9    4
 0.4291914486468876    2    2    9    9
 -0.01199182406278058    2    2   10    1
 -0.03872942226028864    2    2   10    2
 -0.02276110935154918    2    2   10    5
 -0.001500536112394406    2    2   10    6
 -0.08866766211637073    2    2   10    7
 0.4487629622554111    2    2   10   10
 0.01782526918946376    3    1    3    1
 0.01529643726543937    3    1    3    2
 0.001039175469177355    3    1    5    3
 -9.498519976221595e-05    3    1    6    3
 -0.001301739384628687    3    1    7    3
 -0.002024755853010621    3    1    8    1
 -0.001193207458459965    3    1    8    2
 0.0004603005652726657    3    1    8    5
 2.561902241056981e-05    3    1    8    6
 -0.0006461352108439255    3    1    8    7
 -0.001006212676731763    3    1   10    3
 7.22358705442327e-05    3    1   10    8
 0.01529643726543942    3    2    3    1
 0.1718594915161938    3    2    3    2
 0.003676696421927135    3    2    5    3
 -0.002772557183182983    3    2    6    3
 -0.002501251201800759    3    2    7    3
 -0.004223527572212634    3    2    8    1
 -0.001374224316193041    3    2    8    2
 0.01825976034698744    3    2    8    5
 -0.0006461352108439107    3    2    8    6
 0.03586968919785004    3    2    8    7
 -0.01992546238493213    3    2   10    3
 -0.01456119533243238    3    2   10    8
 0.9854957834341589    3    3    1    1
 0.01890638020899997    3    3    2    1
 0.7328577041318112    3    3    2    2
 0.7817902088703993    3    3    3    3
 0.6960362617731198    3    3    4    4
 -0.005024488494416287    3    3    5    1
 0.02740017758726536    3    3    5    2
 1.308952762113988e-15    3    3    5    4
 0.7265554336705551    3    3    5    5
 -0.0003050676502192986    3    3    6    1
 -0.005606143250665933    3    3    6    2
 -0.006777351761569834    3    3    6    5
 0.444630649623399    3    3    6    6
 0.008530768898935297    3    3    7    1
 -0.02168125981585079    3    3    7    2
 -0.0418445029338191    3    3    7    5
 0.005575244458490656    3    3    7    6
 0.4291914486468913    3    3    7    7
 -0.003634531409568313    3    3    8    3
 0.413808231555348    3    3    8    8
 -0.003292638690272957    3    3    9    4
 0.4035357817499078    3    3    9    9
 -0.01354332917148125    3    3   10    1
 -0.04052856711705052    3    3   10    2
 -0.01765413732873714    3    3   10    5
 -0.001352519778238581    3    3   10    6
 -0.08415150893093289    3    3   10    7
 0.4188486464952682    3    3   10   10
 0.01782526918946376    4    1    4    1
 0.01529643726543938    4    1    4    2
 0.001039175469177354    4    1    5    4
 -9.498519976221599e-05    4    1    6    4
 -0.001301739384628687    4    1    7    4
 -0.002024755853010623    4    1    9    1
 -0.001193207458459967    4    1    9    2
 0.0004603005652726653    4    1    9    5
 2.561902241056983e-05    4    1    9    6
 -0.0006461352108439234    4    1    9    7
 -0.001006212676731761    4    1   10    4
 7.223587054423189e-05    4    1   10    9
 1.07826480437791e-15    4    2    2    2
 0.01529643726543943    4    2    4    1
 0.1718594915161938    4    2    4    2
 0.003676696421927142    4    2    5    4
 -0.002772557183182983    4    2    6    4
 -0.002501251201800777    4    2    7    4
 -0.004223527572212638    4    2    9    1
 -0.001374224316193075    4    2    9    2
 0.01825976034698743    4    2    9    5
 -0.0006461352108439114    4    2    9    6
 0.03586968919785005    4    2    9    7
 -0.01992546238493213    4    2   10    4
 -0.01456119533243238    4    2   10    9
 0.04287697354863956    4    3    4    3
 -0.0001709463596480818    4    3    8    4
 -0.0001709463596480866    4    3    9    3
 0.005136224902719754    4    3    9    8
 0.9854957834341587    4    4    1    1
 0.01890638020899991    4    4    2    1
 0.7328577041318113    4    4    2    2
 0.6960362617731197    4    4    3    3
 0.7817902088703992    4    4    4    4
 -0.005024488494416296    4    4    5    1
 0.02740017758726535    4    4    5    2
 1.470827625081995e-15    4    4    5    4
 0.7265554336705551    4    4    5    5
 -0.0003050676502192973    4    4    6    1
 -0.005606143250665944    4    4    6    2
 -0.006777351761569834    4    4    6    5
 0.444630649623399    4    4    6    6
 0.008530768898935302    4    4    7    1
 -0.02168125981585064    4    4    7    2
 -1.075657025573848e-15    4    4    7    4
 -0.04184450293381908    4    4    7    5
 0.005575244458490622    4    4    7    6
 0.4291914486468912    4    4    7    7
 -0.003292638690272735    4    4    8    3
 0.4035357817499078    4    4    8    8
 -0.003634531409568521    4    4    9    4
 0.4138082315553478    4    4    9    9
 -0.01354332917148127    4    4   10    1
 -0.0405285671170505    4    4   10    2
 -0.01765413732873711    4    4   10    5
 -0.001352519778238583    4    4   10    6
 -0.08415150893093286    4    4   10    7
 0.4188486464952682    4    4   10   10
 -0.04871881243648461    5    1    1    1
 0.006708068409844488    5    1    2    1
 0.0009334302761036504    5    1    2    2
 -0.005024488494416198    5    1    3    3
 -0.005024488494416198    5    1    4    4
 0.02515561716985813    5    1    5    1
 0.02058231250093922    5    1    5    2
 -0.005111117624305349    5    1    5    5
 -0.000160470973092776    5    1    6    1
 -0.000329492395629754    5    1    6    2
 -0.0002002159175935016    5    1    6    5
 0.00324825537691893    5    1    6    6
 -0.00856798649471277    5    1    7    1
 -0.003774934979488887    5    1    7    2
 0.002074085425645343    5    1    7    5
 0.0002024685407113442    5    1    7    6
 0.001500536112394359    5    1    7    7
 0.001148269831805602    5    1    8    3
 0.001352519778238454    5    1    8    8
 0.001148269831805602    5    1    9    4
 0.001352519778238453    5    1    9    9
 0.005387167409900353    5    1   10    1
 0.0009797837084816359    5    1   10    2
 -0.005334959864466172    5    1   10    5
 -8.061808044542825e-05    5    1   10    6
 -0.000340911919255465    5    1   10    7
 0.00246940425275453    5    1   10   10
 0.09116228634465831    5    2    1    1
 0.009089977310781533    5    2    2    1
 0.046363391668811    5    2    2    2
 0.0274001775872645    5    2    3    3
 0.0274001775872645    5    2    4    4
 0.02058231250093926    5    2    5    1
 0.1337818443173695    5    2    5    2
 0.0009745875795565476    5    2    5    5
 -0.0001592851536610393    5    2    6    1
 -0.002261246388666569    5    2    6    2
 -0.0003909290864519868    5    2    6    5
 0.1187378988024179    5    2    6    6
 -0.007586829646702508    5    2    7    1
 -0.02017655413882279    5    2    7    2
 0.02195603574701688    5    2    7    5
 0.002780021227301374    5    2    7    6
 0.08866766211636926    5    2    7    7
 0.01152938070635041    5    2    8    3
 0.08415150893093157    5    2    8    8
 0.01152938070635038    5    2    9    4
 0.08415150893093157    5    2    9    9
 0.004574532485805184    5    2   10    1
 0.003250266162012766    5    2   10    2
 -0.03895715430910861    5    2   10    5
 -0.0003409119192555388    5    2   10    6
 -0.02502972281717102    5    2   10    7
 0.09917487981703194    5    2   10   10
 0.00103917546917738    5    3    3    1
 0.003676696421927106    5    3    3    2
 0.04414251836633908    5    3    5    3
 -0.001351254406304431    5    3    6    3
 -0.003506486130888825    5    3    7    3
 -0.0008758853965924042    5    3    8    1
 0.005013565546517227    5    3    8    2
 0.002839365150834431    5    3    8    5
 -7.22358705442133e-05    5    3    8    6
 0.01456119533243237    5    3    8    7
 -0.003025209471795036    5    3   10    3
 -0.008646844598618947    5    3   10    8
 1.874366432355136e-15    5    4    1    1
 1.378078220656185e-15    5    4    2    2
 1.308952762113988e-15    5    4    3    3
 0.00103917546917738    5    4    4    1
 0.003676696421927102    5    4    4    2
 1.470827625081995e-15    5    4    4    4
 0.04414251836633908    5    4    5    4
 1.538402623147888e-15    5    4    5    5
 -0.001351254406304431    5    4    6    4
 -0.003506486130888833    5    4    7    4
 -0.0008758853965924042    5    4    9    1
 0.005013565546517228    5    4    9    2
 0.002839365150834424    5    4    9    5
 -7.223587054421281e-05    5    4    9    6
 0.01456119533243235    5    4    9    7
 -0.003025209471795035    5    4   10    4
 -0.008646844598618942    5    4   10    9
 1.077486807608977    5    5    1    1
 0.02329539160172625    5    5    2    1
 0.7441004795622026    5    5    2    2
 0.7265554336705546    5    5    3    3
 0.7265554336705546    5    5    4    4
 -0.005111117624305481    5    5    5    1
 0.0009745875795573594    5    5    5    2
 1.538402623147887e-15    5    5    5    4
 0.8538333345800228    5    5    5    5
 -0.0005005399071260433    5    5    6    1
 -0.005451005163676164    5    5    6    2
 -0.007750985205340596    5    5    6    5
 0.4793184160771927    5    5    6    6
 0.01019804604350357    5    5    7    1
 -0.01483297845518992    5    5    7    2
 -1.020711787584149e-15    5    5    7    4
 -0.05992038299349284    5    5    7    5
 0.007726071634642076    5    5    7    6
 0.4487629622554095    5    5    7    7
 -0.004874693404415036    5    5    8    3
 0.4188486464952669    5    5    8    8
 -0.004874693404415244    5    5    9    4
 0.4188486464952668    5    5    9    9
 -0.01602030125677146    5    5   10    1
 -0.04776984794886432    5    5   10    2
 -0.01298169903603208    5    5   10    5
 -0.00246940425275481    5    5   10    6
 -0.09917487981703275    5    5   10    7
 0.4486896384159988    5    5   10   10
 -0.002184815794081337    6    1    1    1
 -7.753227618146117e-05    6    1    2    1
 -0.0003878198390889447    6    1    2    2
 -0.0003050676502192963    6    1    3    3
 -0.0003050676502192963    6    1    4    4
 -0.0001604709730927753    6    1    5    1
 -0.00015928515366104    6    1    5    2
 -0.0005005399071260429    6    1    5    5
 6.930813551168479e-06    6    1    6    1
 2.500402541140279e-06    6    1    6    2
 -2.821660828134117e-05    6    1    6    5
 -0.002184815794081741    6    1    6    6
 2.500402541148241e-06    6    1    7    1
 0.0001236352642768041    6    1    7    2
 8.978016192643554e-05    6    1    7    5
 -7.753227618145912e-05    6    1    7    6
 -0.0003878198390889896    6    1    7    7
 6.674522693143087e-05    6    1    8    3
 -0.0003050676502193589    6    1    8    8
 6.674522693143099e-05    6    1    9    4
 -0.0003050676502193589    6    1    9    9
 2.821660828133408e-05    6    1   10    1
 -8.978016192646342e-05    6    1   10    2
 -2.617021202463475e-05    6    1   10    5
 0.0001604709730927729    6    1   10    6
 0.0001592851536610383    6    1   10    7
 -0.0005005399071261159    6    1   10   10
 -0.008760768799550888    6    2    1    1
 -0.0003272782678707129    6    2    2    1
 -0.005396596411646687    6    2    2    2
 -0.005606143250665926    6    2    3    3
 -0.005606143250665925    6    2    4    4
 -0.0003294923956297678    6    2    5    1
 -0.002261246388666441    6    2    5    2
 -0.005451005163675878    6    2    5    5
 2.500402541142607e-06    6    2    6    1
 0.00523146704248043    6    2    6    2
 0.004065648870460877    6    2    6    5
 0.1002868424106486    6    2    6    6
 9.43116571824903e-05    6    2    7    1
 0.0008893816318706945    6    2    7    2
 0.0009813657303891681    6    2    7    5
 -0.005029291542423564    6    2    7    6
 0.006457507464088665    6    2    7    7
 -0.001280375189179596    6    2    8    3
 0.008530768898934907    6    2    8    8
 -0.001280375189179597    6    2    9    4
 0.008530768898934905    6    2    9    9
 0.0001236080740181322    6    2   10    1
 0.003507486135601906    6    2   10    2
 0.003482419710620355    6    2   10    5
 0.008567986494712692    6    2   10    6
 0.007586829646702524    6    2   10    7
 0.01019804604350321    6    2   10   10
 -9.498519976221381e-05    6    3    3    1
 -0.002772557183182976    6    3    3    2
 -0.001351254406304427    6    3    5    3
 0.0003582696497744737    6    3    6    3
 1.421816166862026e-15    6    3    6    6
 5.052767865720289e-05    6    3    7    3
 0.0001337087193810285    6    3    8    1
 -9.26042801434651e-05    6    3    8    2
 -0.0008001149053997426    6    3    8    5
 -0.002024755853010614    6    3    8    6
 -0.00422352757221263    6    3    8    7
 0.0007456145562774359    6    3   10    3
 0.0008758853965924017    6    3   10    8
 -9.498519976221382e-05    6    4    4    1
 -0.002772557183182976    6    4    4    2
 -0.001351254406304427    6    4    5    4
 0.0003582696497744748    6    4    6    4
 5.052767865720419e-05    6    4    7    4
 0.0001337087193810285    6    4    9    1
 -9.260428014346478e-05    6    4    9    2
 -0.0008001149053997427    6    4    9    5
 -0.002024755853010619    6    4    9    6
 -0.004223527572212634    6    4    9    7
 0.0007456145562774361    6    4   10    4
 0.0008758853965924015    6    4   10    9
 -0.01138264107022495    6    5    1    1
 -0.0003524773796027766    6    5    2    1
 -0.006279071952280474    6    5    2    2
 -0.006777351761569682    6    5    3    3
 -0.006777351761569681    6    5    4    4
 -0.0002002159175935054    6    5    5    1
 -0.0003909290864520885    6    5    5    2
 -0.007750985205340582    6    5    5    5
 -2.821660828134168e-05    6    5    6    1
 0.004065648870460901    6    5    6    2
 0.00365552751118795    6    5    6    5
 0.1000965376176629    6    5    6    6
 -0.0001236080740181321    6    5    7    1
 -6.229078036402644e-05    6    5    7    2
 0.001959778828013849    6    5    7    5
 -0.002222840324775916    6    5    7    6
 0.01199182406277987    6    5    7    7
 -0.001212945101313173    6    5    8    3
 0.01354332917148051    6    5    8    8
 -0.001212945101313176    6    5    9    4
 0.01354332917148051    6    5    9    9
 0.0003788534097696236    6    5   10    1
 0.004610460352284963    6    5   10    2
 0.002649353316584987    6    5   10    5
 0.005387167409900253    6    5   10    6
 0.004574532485805435    6    5   10    7
 0.01602030125677013    6    5   10   10
 0.4988146406844233    6    6    1    1
 0.008670432915205931    6    6    2    1
 0.491461750634246    6    6    2    2
 0.4446306496233981    6    6    3    3
 0.4446306496233981    6    6    4    4
 0.00324825537691885    6    6    5    1
 0.1187378988024195    6    6    5    2
 0.4793184160771962    6    6    5    5
 -0.002184815794081682    6    6    6    1
 0.1002868424106477    6    6    6    2
 1.421816166862025e-15    6    6    6    3
 0.1000965376176624    6    6    6    5
 4.269852604891366    6    6    6    6
 -0.008760768799550874    6    6    7    1
 -0.05268435541368582    6    6    7    2
 0.05354235898070565    6    6    7    5
 -0.06470313770736776    6    6    7    6
 0.9876347055832364    6    6    7    7
 -0.01999836526677107    6    6    8    3
 0.9854957834341576    6    6    8    8
 -0.01999836526677143    6    6    9    4
 0.9854957834341576    6    6    9    9
 0.01138264107022447    6    6   10    1
 0.1083824309595915    6    6   10    2
 -0.003216984164314818    6    6   10    5
 0.04871881243648307    6    6   10    6
 -0.09116228634466025    6    6   10    7
 1.077486807608976    6    6   10   10
 0.1002868424106496    7    1    1    1
 -0.005029291542423704    7    1    2    1
 0.006457507464089024    7    1    2    2
 0.008530768898935101    7    1    3    3
 0.008530768898935101    7    1    4    4
 -0.00856798649471277    7    1    5    1
 -0.007586829646702415    7    1    5    2
 0.01019804604350354    7    1    5    5
 2.500402541148255e-06    7    1    6    1
 9.431165718249451e-05    7    1    6    2
 -0.0001236080740181122    7    1    6    5
 -0.008760768799550818    7    1    6    6
 0.005231467042480548    7    1    7    1
 0.0008893816318706022    7    1    7    2
 -0.003507486135601999    7    1    7    5
 -0.0003272782678707272    7    1    7    6
 -0.005396596411646602    7    1    7    7
 -0.001280375189179618    7    1    8    3
 -0.00560614325066585    7    1    8    8
 -0.001280375189179618    7    1    9    4
 -0.00560614325066585    7    1    9    9
 -0.004065648870461031    7    1   10    1
 -0.0009813657303891117    7    1   10    2
 0.003482419710620445    7    1   10    5
 0.0003294923956297731    7    1   10    6
 0.002261246388666387    7    1   10    7
 -0.005451005163675755    7    1   10   10
 -0.05268435541368466    7    2    1    1
 -0.002367665747485809    7    2    2    1
 -0.02406054414798105    7    2    2    2
 -0.02168125981584898    7    2    3    3
 -0.02168125981584898    7    2    4    4
 -0.003774934979488871    7    2    5    1
 -0.02017655413882345    7    2    5    2
 -0.01483297845519042    7    2    5    5
 0.0001236352642768004    7    2    6    1
 0.0008893816318707426    7    2    6    2
 -6.229078036433435e-05    7    2    6    5
 -0.05268435541368547    7    2    6    6
 0.0008893816318706995    7    2    7    1
 0.007933548605349776    7    2    7    2
 -0.0003739189619197912    7    2    7    5
 -0.002367665747485844    7    2    7    6
 -0.02406054414798175    7    2    7    7
 -0.0007215948470174166    7    2    8    3
 -0.02168125981584983    7    2    8    8
 -0.0007215948470174079    7    2    9    4
 -0.02168125981584983    7    2    9    9
 6.229078036411759e-05    7    2   10    1
 0.0003739189619202101    7    2   10    2
 0.007544394979959991    7    2   10    5
 0.003774934979488875    7    2   10    6
 0.02017655413882327    7    2   10    7
 -0.01483297845519053    7    2   10   10
 -0.001301739384628719    7    3    3    1
 -0.002501251201800822    7    3    3    2
 -0.003506486130888853    7    3    5    3
 5.052767865720403e-05    7    3    6    3
 0.002561916932409045    7    3    7    3
 -9.260428014346994e-05    7    3    8    1
 0.0003725886488675926    7    3    8    2
 0.001037590926568891    7    3    8    5
 -0.001193207458459975    7    3    8    6
 -0.001374224316192925    7    3    8    7
 -0.0009646790076276266    7    3   10    3
 -0.005013565546517212    7    3   10    8
 -1.355980166506288e-15    7    4    1    1
 -1.018911010022187e-15    7    4    2    2
 -0.001301739384628719    7    4    4    1
 -0.002501251201800832    7    4    4    2
 -1.075657025573847e-15    7    4    4    4
 -0.003506486130888857    7    4    5    4
 -1.020711787584152e-15    7    4    5    5
 5.05276786572056e-05    7    4    6    4
 0.002561916932409045    7    4    7    4
 -9.260428014346897e-05    7    4    9    1
 0.0003725886488675934    7    4    9    2
 0.001037590926568886    7    4    9    5
 -0.001193207458459979    7    4    9    6
 -0.001374224316192974    7    4    9    7
 -0.0009646790076276204    7    4   10    4
 -0.005013565546517208    7    4   10    9
 -0.1083824309595915    7    5    1    1
 -0.002990397512752068    7    5    2    1
 -0.04014463733809293    7    5    2    2
 -0.0418445029338185    7    5    3    3
 -0.04184450293381851    7    5    4    4
 0.002074085425645415    7    5    5    1
 0.02195603574701659    7    5    5    2
 -0.05992038299349415    7    5    5    5
 8.978016192644014e-05    7    5    6    1
 0.000981365730389304    7    5    6    2
 0.001959778828013635    7    5    6    5
 0.05354235898070808    7    5    6    6
 -0.003507486135601918    7    5    7    1
 -0.0003739189619210033    7    5    7    2
 0.01844302526494319    7    5    7    5
 0.00139780014477276    7    5    7    6
 0.03872942226028898    7    5    7    7
 0.003316042385640305    7    5    8    3
 0.04052856711705091    7    5    8    8
 0.003316042385640299    7    5    9    4
 0.04052856711705091    7    5    9    9
 0.004610460352285255    7    5   10    1
 0.01033834288369561    7    5   10    2
 -0.008065210292042373    7    5   10    5
 0.0009797837084817474    7    5   10    6
 0.003250266162011873    7    5   10    7
 0.04776984794886709    7    5   10   10
 0.008670432915206437    7    6    1    1
 0.0003890062100129782    7    6    2    1
 0.007038999622639435    7    6    2    2
 0.005575244458490682    7    6    3    3
 0.005575244458490682    7    6    4    4
 0.0002024685407113885    7    6    5    1
 0.002780021227301016    7    6    5    2
 0.007726071634641068    7    6    5    5
 -7.753227618146552e-05    7    6    6    1
 -0.005029291542423512    7    6    6    2
 -0.002222840324775794    7    6    6    5
 -0.06470313770736941    7    6    6    6
 -0.0003272782678707481    7    6    7    1
 -0.002367665747485643    7    6    7    2
 0.0013978001447734    7    6    7    5
 0.01661458886628588    7    6    7    6
 0.01992758605444819    7    6    7    7
 -0.0007429637587958965    7    6    8    3
 0.01890638020900156    7    6    8    8
 -0.0007429637587959017    7    6    9    4
 0.01890638020900156    7    6    9    9
 0.000352477379602813    7    6   10    1
 0.002990397512752188    7    6   10    2
 -0.00129010379944292    7    6   10    5
 -0.006708068409844357    7    6   10    6
 -0.009089977310781511    7    6   10    7
 0.02329539160172803    7    6   10   10
 0.4914617506342482    7    7    1    1
 0.00703899962263898    7    7    2    1
 0.4521679962347268    7    7    2    2
 0.4291914486468895    7    7    3    3
 0.4291914486468895    7    7    4    4
 0.001500536112394261    7    7    5    1
 0.08866766211637055    7    7    5    2
 0.4487629622554137    7    7    5    5
 -0.0003878198390889786    7    7    6    1
 0.006457507464088424    7    7    6    2
 0.01199182406278025    7    7    6    5
 0.987634705583235    7    7    6    6
 -0.005396596411646655    7    7    7    1
 -0.02406054414798137    7    7    7    2
 0.03872942226028696    7    7    7    5
 0.01992758605444895    7    7    7    6
 0.7365891391997265    7    7    7    7
 -0.002126933497070022    7    7    8    3
 0.7328577041318102    7    7    8    8
 -0.002126933497070271    7    7    9    4
 0.7328577041318101    7    7    9    9
 0.006279071952280154    7    7   10    1
 0.04014463733809143    7    7   10    2
 -0.02276110935154924    7    7   10    5
 -0.0009334302761039824    7    7   10    6
 -0.04636339166881126    7    7   10    7
 0.7441004795622005    7    7   10   10
 -0.00202475585301062    8    1    3    1
 -0.004223527572212633    8    1    3    2
 -0.0008758853965924003    8    1    5    3
 0.0001337087193810277    8    1    6    3
 -9.26042801434664e-05    8    1    7    3
 0.0003582696497744761    8    1    8    1
 5.052767865720246e-05    8    1    8    2
 -0.0007456145562774431    8    1    8    5
 -9.498519976221575e-05    8    1    8    6
 -0.002772557183182983    8    1    8    7
 0.0008001149053997476    8    1   10    3
 0.001351254406304425    8    1   10    8
 -0.001193207458459976    8    2    3    1
 -0.001374224316192984    8    2    3    2
 0.005013565546517228    8    2    5    3
 -9.260428014344781e-05    8    2    6    3
 0.0003725886488674714    8    2    7    3
 5.052767865720399e-05    8    2    8    1
 0.002561916932409128    8    2    8    2
 0.0009646790076276958    8    2    8    5
 -0.001301739384628756    8    2    8    6
 -0.002501251201801194    8    2    8    7
 -0.001037590926568723    8    2   10    3
 0.00350648613088889    8    2   10    8
 -0.01999836526677179    8    3    1    1
 -0.000742963758795652    8    3    2    1
 -0.002126933497071245    8    3    2    2
 -0.003634531409568794    8    3    3    3
 -0.003292638690272489    8    3    4    4
 0.001148269831805617    8    3    5    1
 0.01152938070635016    8    3    5    2
 -0.004874693404415745    8    3    5    5
 6.674522693142892e-05    8    3    6    1
 -0.001280375189179607    8    3    6    2
 -0.001212945101313129    8    3    6    5
 -0.01999836526677155    8    3    6    6
 -0.001280375189179661    8    3    7    1
 -0.0007215948470168619    8    3    7    2
 0.003316042385640778    8    3    7    5
 -0.000742963758795732    8    3    7    6
 -0.002126933497071146    8    3    7    7
 0.00516693350894275    8    3    8    3
 -0.003634531409568635    8    3    8    8
 0.00331160789680326    8    3    9    4
 -0.00329263869027243    8    3    9    9
 0.001212945101313194    8    3   10    1
 -0.003316042385640681    8    3   10    2
 -0.007487520433799584    8    3   10    5
 -0.001148269831805586    8    3   10    6
 -0.01152938070635016    8    3   10    7
 -0.004874693404415489    8    3   10   10
 -0.0001709463596480753    8    4    4    3
 0.0009276628060697363    8    4    8    4
 0.0009276628060697363    8    4    9    3
 -0.0001709463596480666    8    4    9    8
 0.0004603005652726557    8    5    3    1
 0.01825976034698754    8    5    3    2
 0.002839365150834433    8    5    5    3
 -0.0008001149053997294    8    5    6    3
 0.001037590926568794    8    5    7    3
 -0.0007456145562774326    8    5    8    1
 0.0009646790076275667    8    5    8    2
 0.005115022677580981    8    5    8    5
 0.001006212676731685    8    5    8    6
 0.01992546238493203    8    5    8    7
 -0.005061139889137469    8    5   10    3
 -0.003025209471795059    8    5   10    8
 2.56190224105696e-05    8    6    3    1
 -0.0006461352108439088    8    6    3    2
 -7.22358705442202e-05    8    6    5    3
 -0.002024755853010611    8    6    6    3
 -0.001193207458459976    8    6    7    3
 -9.498519976221779e-05    8    6    8    1
 -0.001301739384628724    8    6    8    2
 0.001006212676731732    8    6    8    5
 0.01782526918946374    8    6    8    6
 0.01529643726543944    8    6    8    7
 -0.0004603005652726543    8    6   10    3
 -0.001039175469177376    8    6   10    8
 -0.0006461352108439223    8    7    3    1
 0.03586968919785    8    7    3    2
 0.01456119533243236    8    7    5    3
 -0.004223527572212646    8    7    6    3
 -0.001374224316192871    8    7    7    3
 -0.002772557183182979    8    7    8    1
 -0.002501251201801225    8    7    8    2
 0.01992546238493187    8    7    8    5
 0.01529643726543949    8    7    8    6
 0.1718594915161945    8    7    8    7
 -0.01825976034698765    8    7   10    3
 -0.003676696421927376    8    7   10    8
 0.4446306496233986    8    8    1    1
 0.005575244458490081    8    8    2    1
 0.429191448646889    8    8    2    2
 0.4138082315553481    8    8    3    3
 0.4035357817499078    8    8    4    4
 0.001352519778238451    8    8    5    1
 0.08415150893093194    8    8    5    2
 0.4188486464952673    8    8    5    5
 -0.0003050676502193433    8    8    6    1
 0.008530768898934834    8    8    6    2
 0.01354332917148047    8    8    6    5
 0.9854957834341581    8    8    6    6
 -0.00560614325066582    8    8    7    1