 &FCI NORB=22 ,NELEC=22 ,MS2=0,
  ORBSYM=1,1,1,1,1,1,1,1,1,1,1,1,1,1,1,1,1,1,1,1,1,1
  ISYM=1,
 &END
4.000000  1  1  1  1
4.000000  2  2  2  2
4.000000  3  3  3  3
4.000000  4  4  4  4
4.000000  5  5  5  5
4.000000  6  6  6  6
4.000000  7  7  7  7
4.000000  8  8  8  8
4.000000  9  9  9  9
4.000000  10  10  10  10
4.000000  11  11  11  11
4.000000  12  12  12  12
4.000000  13  13  13  13
4.000000  14  14  14  14
4.000000  15  15  15  15
4.000000  16  16  16  16
4.000000  17  17  17  17
4.000000  18  18  18  18
4.000000  19  19  19  19
4.000000  20  20  20  20
4.000000  21  21  21  21
4.000000  22  22  22  22
-1.000000  1  2  0  0
-1.000000  2  3  0  0
-1.000000  3  4  0  0
-1.000000  4  5  0  0
-1.000000  5  6  0  0
-1.000000  6  7  0  0
-1.000000  7  8  0  0
-1.000000  8  9  0  0
-1.000000  9  10  0  0
-1.000000  10  11  0  0
-1.000000  11  12  0  0
-1.000000  12  13  0  0
-1.000000  13  14  0  0
-1.000000  14  15  0  0
-1.000000  15  16  0  0
-1.000000  16  17  0  0
-1.000000  17  18  0  0
-1.000000  18  19  0  0
-1.000000  19  20  0  0
-1.000000  20  21  0  0
-1.000000  21  22  0  0
