 &FCI NORB=8 ,NELEC=12 ,MS2=2,
  ORBSYM=1,5,3,2,1,6,7,5,
  ISYM=1,
 &END
  9.326560847811e-01    1  1  1  1
  6.905705817479e-02    2  1  2  1
  5.986795000947e-01    2  2  1  1
  6.143949701774e-01    2  2  2  2
  1.124463563450e-01    3  1  3  1
  5.392830571924e-02    3  2  3  2
  7.227048208855e-01    3  3  1  1
  5.740014883010e-01    3  3  2  2
  6.616382739056e-01    3  3  3  3
  1.124463563450e-01    4  1  4  1
  5.392830571924e-02    4  2  4  2
  2.573475243229e-02    4  3  4  3
  7.227048208855e-01    4  4  1  1
  5.740014883010e-01    4  4  2  2
  6.101687690411e-01    4  4  3  3
  6.616382739056e-01    4  4  4  4
 -1.629337846510e-01    5  1  1  1
 -6.551728643610e-03    5  1  2  2
 -6.846568700073e-02    5  1  3  3
 -6.846568700073e-02    5  1  4  4
  7.651026435207e-02    5  1  5  1
  1.079170317059e-01    5  2  2  1
  2.357229110139e-01    5  2  5  2
  1.542044600535e-02    5  3  3  1
  2.892691690796e-02    5  3  5  3
  1.542044600535e-02    5  4  4  1
  2.892691690796e-02    5  4  5  4
  6.454013294067e-01    5  5  1  1
  6.216592843487e-01    5  5  2  2
  5.828828701724e-01    5  5  3  3
  5.828828701724e-01    5  5  4  4
 -3.383732006445e-02    5  5  5  1
  6.494439213787e-01    5  5  5  5
  4.593292008764e-02    6  1  4  2
  4.623932350591e-02    6  1  6  1
  7.934372622639e-02    6  2  4  1
  4.097827792403e-02    6  2  5  4
  9.116339345546e-02    6  2  6  2
  1.855858767965e-02    6  3  6  3
  1.096677529835e-01    6  4  2  1
  1.673932986871e-01    6  4  5  2
  1.968580536507e-01    6  4  6  4
  4.186941330589e-02    6  5  4  2
  2.730738112353e-02    6  5  6  1
  4.286960945015e-02    6  5  6  5
  6.656990532930e-01    6  6  1  1
  5.903001366483e-01    6  6  2  2
  5.889818645368e-01    6  6  3  3
  6.343053520396e-01    6  6  4  4
 -3.948389280497e-02    6  6  5  1
  5.937572790012e-01    6  6  5  5
  6.346601144206e-01    6  6  6  6
  4.593292008764e-02    7  1  3  2
  4.623932350591e-02    7  1  7  1
  7.934372622639e-02    7  2  3  1
  4.097827792403e-02    7  2  5  3
  9.116339345546e-02    7  2  7  2
  1.096677529835e-01    7  3  2  1
  1.673932986871e-01    7  3  5  2
  1.597408782914e-01    7  3  6  4
  1.968580536507e-01    7  3  7  3
  1.855858767965e-02    7  4  6  3
  1.855858767965e-02    7  4  7  4
  4.186941330589e-02    7  5  3  2
  2.730738112353e-02    7  5  7  1
  4.286960945015e-02    7  5  7  5
  2.266174375141e-02    7  6  4  3
  2.414754180117e-02    7  6  7  6
  6.656990532930e-01    7  7  1  1
  5.903001366483e-01    7  7  2  2
  6.343053520396e-01    7  7  3  3
  5.889818645368e-01    7  7  4  4
 -3.948389280497e-02    7  7  5  1
  5.937572790012e-01    7  7  5  5
  5.863650308182e-01    7  7  6  6
  6.346601144206e-01    7  7  7  7
 -7.374662705835e-02    8  1  2  1
 -6.313372061031e-02    8  1  5  2
 -1.199236626923e-01    8  1  6  4
 -1.199236626923e-01    8  1  7  3
  1.528549221779e-01    8  1  8  1
 -8.126555138977e-02    8  2  1  1
  2.407934019285e-02    8  2  2  2
 -4.316075305383e-02    8  2  3  3
 -4.316075305383e-02    8  2  4  4
  3.754670445838e-02    8  2  5  1
  2.888472413929e-02    8  2  5  5
 -2.075122317229e-02    8  2  6  6
 -2.075122317229e-02    8  2  7  7
  5.152862050104e-02    8  2  8  2
 -2.617260040335e-02    8  3  3  2
 -3.580000195520e-02    8  3  7  1
 -4.158070917613e-03    8  3  7  5
  3.879861283865e-02    8  3  8  3
 -2.617260040335e-02    8  4  4  2
 -3.580000195520e-02    8  4  6  1
 -4.158070917613e-03    8  4  6  5
  3.879861283865e-02    8  4  8  4
  7.266511962475e-02    8  5  2  1
  1.398739826623e-01    8  5  5  2
  1.132513748564e-01    8  5  6  4
  1.132513748564e-01    8  5  7  3
 -9.104067946982e-02    8  5  8  1
  1.232554137465e-01    8  5  8  5
 -5.917795584880e-02    8  6  4  1
  1.238139690292e-03    8  6  5  4
 -3.238342162493e-02    8  6  6  2
  4.235250150372e-02    8  6  8  6
 -5.917795584880e-02    8  7  3  1
  1.238139690292e-03    8  7  5  3
 -3.238342162493e-02    8  7  7  2
  4.235250150372e-02    8  7  8  7
  8.986444976749e-01    8  8  1  1
  6.529066388942e-01    8  8  2  2
  7.249926131819e-01    8  8  3  3
  7.249926131819e-01    8  8  4  4
 -1.340716232693e-01    8  8  5  1
  7.014671202448e-01    8  8  5  5
  6.968868342030e-01    8  8  6  6
  6.968868342030e-01    8  8  7  7
 -4.577879199010e-02    8  8  8  2
  9.486002800186e-01    8  8  8  8
 -9.162817170188e+00    1  1  0  0
 -7.071722962502e+00    2  2  0  0
 -7.342643674511e+00    3  3  0  0
 -7.342643674511e+00    4  4  0  0
  6.720522665611e-01    5  1  0  0
 -7.118096301880e+00    5  5  0  0
 -6.731854774267e+00    6  6  0  0
 -6.731854774267e+00    7  7  0  0
  2.750938399551e-01    8  2  0  0
 -7.098868860662e+00    8  8  0  0
    -98.924149849025   0  0  0  0
