 &FCI NORB=  23,NELEC= 8,MS2=0,
  ORBSYM=1,1,1,1,1,1,1,1,1,1,1,1,1,1,1,1,1,1,1,1,1,1,1,
  ISYM=1,
 &END
 0.7532941481771402    1    1    1    1
 0.6787101096268028    1    1    2    2
 0.01748067267962245    1    1    3    1
 0.6795722709082564    1    1    3    3
 0.7137044308756501    1    1    4    4
 0.108610196106212    1    1    5    1
 -1.247527365205037e-14    1    1    5    2
 0.05870387703305418    1    1    5    3
 0.3665722370061666    1    1    5    5
 -1.2559162368619e-14    1    1    6    1
 -0.1245843443298372    1    1    6    2
 -6.088801545785864e-15    1    1    6    3
 -4.411195949241653e-15    1    1    6    5
 0.3454592468766318    1    1    6    6
 -4.116070607723667e-15    1    1    7    1
 0.03312866669063549    1    1    7    2
 -3.217150168633028e-15    1    1    7    3
 -1.468626946645201e-14    1    1    7    5
 -0.1003573035556759    1    1    7    6
 0.5112531802155815    1    1    7    7
 -0.0709977522847511    1    1    8    1
 -0.06614661545360338    1    1    8    3
 -0.1125907524557066    1    1    8    5
 1.577524326551066e-14    1    1    8    6
 1.441020794750681e-15    1    1    8    7
 0.5228644654150492    1    1    8    8
 -0.00569833516743757    1    1    9    1
 7.080248872048486e-15    1    1    9    2
 -0.1452922957318081    1    1    9    3
 -0.04850733662408451    1    1    9    5
 2.79094473243731e-15    1    1    9    7
 0.02770421824215005    1    1    9    8
 0.5699147724216183    1    1    9    9
 -0.1884958967735877    1    1   10    4
 0.6171254273832137    1    1   10   10
 1.091894307245816e-15    1    1   11    1
 -0.1379104981860811    1    1   11    2
 -7.59543375270981e-15    1    1   11    3
 8.92480706797753e-15    1    1   11    5
 0.1108446571957763    1    1   11    6
 -0.02781174832697206    1    1   11    7
 2.237505830117849e-15    1    1   11    8
 1.818419642737934e-15    1    1   11    9
 0.5423721503831689    1    1   11   11
 0.04686476731552826    1    1   12    1
 -0.0591325956472231    1    1   12    3
 0.0350984482882269    1    1   12    5
 -3.428453181399734e-15    1    1   12    6
 0.004428989121576923    1    1   12    8
 -0.01645630294598125    1    1   12    9
 0.5199249698047438    1    1   12   12
 0.5264984774104954    1    1   13   13
 0.01812082043519659    1    1   14    4
 0.02445665082247876    1    1   14   10
 0.5119486107485575    1    1   14   14
 -0.1001258535788434    1    1   15    1
 0.02861551165440035    1    1   15    3
 -0.07240036302397157    1    1   15    5
 1.000202000006468e-14    1    1   15    6
 -0.007753935499855826    1    1   15    8
 -0.013239768744689    1    1   15    9
 -0.02068383823852723    1    1   15   12
 0.5881774916294309    1    1   15   15
 -2.254939675188681e-15    1    1   16    1
 0.0003649085554828622    1    1   16    2
 -1.632856348107574e-15    1    1   16    5
 0.001175430815231534    1    1   16    6
 -0.007987723595631144    1    1   16    7
 -0.01783217904299987    1    1   16   11
 1.887822152530971e-15    1    1   16   15
 0.4863409781086283    1    1   16   16
 -2.426984047325521e-15    1    1   17    1
 0.005506424422387186    1    1   17    2
 -1.118943281359451e-15    1    1   17    3
 -5.822865814717756e-15    1    1   17    5
 -0.03145362385328232    1    1   17    6
 0.1214901647545126    1    1   17    7
 4.466831957347441e-15    1    1   17    8
 5.770228624072629e-15    1    1   17    9
 -0.07325221540208392    1    1   17   11
 -2.334775596107609e-15    1    1   17   12
 0.003957556753953703    1    1   17   16
 0.6059898364233466    1    1   17   17
 0.03606995559366288    1    1   18    1
 0.01120334356557113    1    1   18    3
 0.0519022114981628    1    1   18    5
 -6.933960868572297e-15    1    1   18    6
 2.352128312130407e-15    1    1   18    7
 -0.1340655764662344    1    1   18    8
 -0.04404257852999193    1    1   18    9
 -6.957566784073339e-15    1    1   18   11
 0.03117446836019221    1    1   18   12
 -0.01677593876158787    1    1   18   15
 -1.753877972951596e-15    1    1   18   17
 0.6268286891747158    1    1   18   18
 0.0376993838774845    1    1   19    4
 -0.01947692879435054    1    1   19   10
 2.7149960389283e-15    1    1   19   13
 0.08905442065416141    1    1   19   14
 0.7046769157414382    1    1   19   19
 0.09065766948931721    1    1   20   13
 -2.84520950872111e-15    1    1   20   14
 0.7053176540833143    1    1   20   20
 -0.00360558409030532    1    1   21    1
 -0.03802323432547025    1    1   21    3
 -0.01103332021686613    1    1   21    5
 1.240673812265464e-15    1    1   21    6
 1.742229140470464e-15    1    1   21    7
 0.04388924370514558    1    1   21    8
 0.002525887385209014    1    1   21    9
 0.09434615139161573    1    1   21   12
 0.0358277617181401    1    1   21   15
 -0.003083679395915196    1    1   21   18
 0.7014409484973118    1    1   21   21
 0.01123564284598079    1    1   22    1
 0.01819305652571277    1    1   22    3
 0.007674516808743311    1    1   22    5
 -2.100015618051463e-15    1    1   22    7
 -0.03170733415835342    1    1   22    8
 -0.07485019842271723    1    1   22    9
 -2.877400073482461e-15    1    1   22   11
 0.02222773308833986    1    1   22   12
 -0.06269915465339836    1    1   22   15
 -1.927163580335668e-15    1    1   22   16
 2.935803563938998e-15    1    1   22   17
 -0.04981581122024401    1    1   22   18
 0.004230819413836456    1    1   22   21
 0.6887867707206611    1    1   22   22
 0.04890213373971464    1    1   23    2
 -1.508205592270104e-15    1    1   23    5
 -0.02039477853812457    1    1   23    6
 0.0004470013151903033    1    1   23    7
 4.855269492113249e-15    1    1   23    9
 -0.1188006586016963    1    1   23   11
 -1.957337293653891e-15    1    1   23   15
 -0.008459176506340014    1    1   23   16
 -0.05368142892461304    1    1   23   17
 -4.571143128615969e-15    1    1   23   18
 -1.255311946561779e-15    1    1   23   22
 0.7008669925388625    1    1   23   23
 0.1538019606572837    2    1    2    1
 0.01771502722562364    2    1    3    2
 -4.062499647802226e-15    2    1    5    1
 -0.0005298849022616912    2    1    5    2
 2.220318709954384e-15    2    1    5    3
 -1.006111729065287e-14    2    1    5    5
 -0.03980406496786046    2    1    6    1
 0.02436258235690003    2    1    6    3
 -0.05057298999097047    2    1    6    5
 1.107601557448434e-14    2    1    6    6
 0.003695987688741533    2    1    7    1
 1.831371739618245e-15    2    1    7    2
 -0.07687362801510106    2    1    7    3
 0.01006608345115082    2    1    7    5
 -6.164452947373378e-15    2    1    7    7
 0.05967316966195691    2    1    8    2
 2.967154140228315e-15    2    1    8    3
 0.01661175957480796    2    1    8    6
 -0.08204664543429808    2    1    8    7
 5.880007414500388e-15    2    1    8    8
 1.989718547364832e-15    2    1    9    1
 -0.03546133301819548    2    1    9    2
 3.014042444603079e-15    2    1    9    5
 0.005841289855039034    2    1    9    6
 -0.0009396850831168667    2    1    9    7
 -1.425307243600741e-15    2    1    9    8
 2.077151559443723e-15    2    1    9    9
 -0.03691036871003991    2    1   11    1
 -1.510732018560646e-15    2    1   11    2
 -0.01219843413209224    2    1   11    3
 -0.04273524582621575    2    1   11    5
 4.992215742168128e-15    2    1   11    6
 1.689092305853286e-15    2    1   11    7
 0.0421780394319526    2    1   11    8
 -0.02077998255023515    2    1   11    9
 -4.119255305409017e-15    2    1   11   11
 0.04469033619293106    2    1   12    2
 -1.266317133525806e-15    2    1   12    5
 -0.01483657861898118    2    1   12    6
 0.04657082113742769    2    1   12    7
 -1.515165433572129e-15    2    1   12    8
 -0.01113550626103341    2    1   12   11
 0.06562148753253005    2    1   13    4
 0.0249390879758365    2    1   13   10
 2.998987465584081e-15    2    1   13   13
 -1.156347022285182e-15    2    1   14    4
 0.1083726255633975    2    1   14   13
 -3.218251980807683e-15    2    1   14   14
 -0.02717273517480128    2    1   15    2
 0.01058731936787016    2    1   15    6
 0.01560287002929743    2    1   15    7
 1.355279616492903e-15    2    1   15    8
 -5.247404876332962e-15    2    1   15    9
 0.07621516420319982    2    1   15   11
 2.096227207799583e-15    2    1   15   12
 2.652963766487204e-15    2    1   15   15
 -0.003370158260202712    2    1   16    1
 -0.002580158722241245    2    1   16    3
 0.0040113264230371    2    1   16    5
 -1.095398950546792e-15    2    1   16    7
 -0.05124148300382582    2    1   16    8
 0.04689974807756342    2    1   16    9
 4.476158340153621e-15    2    1   16   11
 -0.090630472147813    2    1   16   12
 -0.0122611407555024    2    1   16   15
 -0.02104750964158174    2    1   17    1
 3.367227563309223e-15    2    1   17    2
 -0.05456388741962012    2    1   17    3
 -0.01440432060833756    2    1   17    5
 0.009929228748139252    2    1   17    8
 0.04060894076614149    2    1   17    9
 1.170741999099161e-15    2    1   17   11
 0.002606275043911899    2    1   17   12
 -0.02562988555531406    2    1   17   15
 -1.428971187879749e-15    2    1   17   16
 -1.382251730831964e-14    2    1   17   17
 -1.398109229952708e-15    2    1   18    1
 -0.04869850844023851    2    1   18    2
 -3.663905765073299e-15    2    1   18    3
 1.45926166585964e-15    2    1   18    5
 0.02393182524749339    2    1   18    6
 0.002452001523136414    2    1   18    7
 2.11021436197713e-15    2    1   18    9
 0.006586642456250538    2    1   18   11
 -1.875360579138499e-15    2    1   18   15
 0.01127012271558331    2    1   18   16
 0.1024478779573405    2    1   18   17
 1.326353240787572e-14    2    1   18   18
 1.354503168347011e-15    2    1   19    4
 -0.02417257709491115    2    1   19   13
 0.08688633476986789    2    1   20    4
 -0.04711460371132031    2    1   20   10
 -0.02766723329428249    2    1   20   14
 0.0106431175233742    2    1   20   19
 0.05292397315493521    2    1   21    2
 -2.980127606024479e-15    2    1   21    5
 -0.03117358308800394    2    1   21    6
 0.01841594749895239    2    1   21    7
 1.521791944750877e-15    2    1   21    9
 -0.03585769549702485    2    1   21   11
 -1.008290439666184e-15    2    1   21   15
 0.0243447916134026    2    1   21   16
 0.009768287554687385    2    1   21   17
 0.03985726581780842    2    1   22    2
 -3.160683588573088e-15    2    1   22    5
 -0.03300472834554442    2    1   22    6
 0.06478921248213249    2    1   22    7
 -1.502681845445184e-15    2    1   22    8
 1.023477984187628e-15    2    1   22    9
 -0.02133998395204952    2    1   22   11
 0.01089880406668249    2    1   22   16
 0.05298669046805381    2    1   22   17
 3.112210941846547e-15    2    1   22   18
 0.01380845227840069    2    1   23    1
 0.05443079673740739    2    1   23    3
 0.02451833881498103    2    1   23    5
 -2.804478151759521e-15    2    1   23    6
 -1.909381330966581e-15    2    1   23    7
 -0.05893745633245418    2    1   23    8
 -0.03198530065512463    2    1   23    9
 -1.846059617273228e-15    2    1   23   11
 0.01143119207345145    2    1   23   12
 -0.00932830849400257    2    1   23   15
 -2.895055053418324e-15    2    1   23   17
 0.05094750488392696    2    1   23   18
 -0.004223872499616076    2    1   23   21
 0.02046466995215252    2    1   23   22
 0.6787101096268028    2    2    1    1
 0.6632565004552573    2    2    2    2
 0.01482854210534721    2    2    3    1
 0.6050129306232751    2    2    3    3
 0.621657076184563    2    2    4    4
 0.07857491470754153    2    2    5    1
 -1.075452831565867e-14    2    2    5    2
 0.03774088690056422    2    2    5    3
 0.3564878961065013    2    2    5    5
 -9.140930182386212e-15    2    2    6    1
 -0.1063561658381633    2    2    6    2
 -3.913094666020452e-15    2    2    6    3
 -2.564018491255144e-15    2    2    6    5
 0.3479220832574857    2    2    6    6
 -1.981275167683057e-15    2    2    7    1
 0.0126019558768282    2    2    7    2
 -1.936949950608833e-15    2    2    7    3
 -1.348822809247176e-14    2    2    7    5
 -0.09599965795749264    2    2    7    6
 0.5188646949206582    2    2    7    7
 -0.02323812230724205    2    2    8    1
 -0.03009009165704191    2    2    8    3
 -0.1023124068244662    2    2    8    5
 1.467392080213166e-14    2    2    8    6
 0.5228625191415716    2    2    8    8
 -0.01433134466495329    2    2    9    1
 5.752951518943668e-15    2    2    9    2
 -0.117385315495448    2    2    9    3
 -0.03660993444806932    2    2    9    5
 1.784161750543384e-15    2    2    9    7
 0.006058265688824461    2    2    9    8
 0.5229425905536178    2    2    9    9
 -0.1419720295961753    2    2   10    4
 0.5480278710227691    2    2   10   10
 -0.1099717597815151    2    2   11    2
 -6.023560366793711e-15    2    2   11    3
 8.413625081129857e-15    2    2   11    5
 0.1026025949397713    2    2   11    6
 -0.02734384737308729    2    2   11    7
 0.5249338833854277    2    2   11   11
 0.05206222208218825    2    2   12    1
 -0.05307495608156793    2    2   12    3
 0.02729419912598599    2    2   12    5
 -2.686331408772838e-15    2    2   12    6
 0.01065027659423947    2    2   12    8
 -0.02935310920080088    2    2   12    9
 -1.07822595008843e-15    2    2   12   11
 0.5051652005364773    2    2   12   12
 0.5293073031840927    2    2   13   13
 0.02608544931312068    2    2   14    4
 0.03124615609434764    2    2   14   10
 0.5046034297602179    2    2   14   14
 -0.08352185280336315    2    2   15    1
 0.02166645882505804    2    2   15    3
 -0.06143882202967103    2    2   15    5
 9.194462033051949e-15    2    2   15    6
 -0.009790909944696316    2    2   15    8
 -0.01761095787324388    2    2   15    9
 -0.007018288232775724    2    2   15   12
 0.5396951264912335    2    2   15   15
 -1.874367143990054e-15    2    2   16    1
 -0.02315287909305661    2    2   16    2
 -1.659697739807784e-15    2    2   16    5
 -0.000812200033195355    2    2   16    6
 -0.0005495878892670314    2    2   16    7
 -0.02651480523974929    2    2   16   11
 0.4981842008483635    2    2   16   16
 -0.001054580725483454    2    2   17    2
 -3.167611491379089e-15    2    2   17    5
 -0.01775929529131111    2    2   17    6
 0.09955567514832354    2    2   17    7
 3.109937399341162e-15    2    2   17    8
 3.302840478230599e-15    2    2   17    9
 -0.06031474295332515    2    2   17   11
 -1.332823378013812e-15    2    2   17   12
 0.01117469238775879    2    2   17   16
 0.5936333037949023    2    2   17   17
 0.001361922149291524    2    2   18    1
 0.0057411681764136    2    2   18    3
 0.02818817264885006    2    2   18    5
 -2.920375946629634e-15    2    2   18    6
 2.488308450195138e-15    2    2   18    7
 -0.1023217124190517    2    2   18    8
 -0.01759224366450749    2    2   18    9
 -5.029767795042081e-15    2    2   18   11
 0.01248330980644906    2    2   18   12
 -0.01193213696241621    2    2   18   15
 0.5934611645713802    2    2   18   18
 0.01852736419732245    2    2   19    4
 -0.0163758030643511    2    2   19   10
 1.8017357114882e-15    2    2   19   13
 0.04995311431192612    2    2   19   14
 0.607906774083202    2    2   19   19
 0.06647293178204332    2    2   20   13
 -1.917119829347128e-15    2    2   20   14
 0.6507412373551281    2    2   20   20
 0.02346196161699839    2    2   21    1
 -0.02749785170986024    2    2   21    3
 0.003017040169072739    2    2   21    5
 0.02605001451546836    2    2   21    8
 0.003061358795376512    2    2   21    9
 0.06668991759708078    2    2   21   12
 0.01248558050069237    2    2   21   15
 1.112376715737663e-15    2    2   21   17
 -0.01283998817774822    2    2   21   18
 0.6281004930113755    2    2   21   21
 0.02426938407549546    2    2   22    1
 -0.00464991292098163    2    2   22    3
 0.01027169839319553    2    2   22    5
 -1.327163444476706e-15    2    2   22    7
 -0.03968647064031483    2    2   22    8
 -0.05120329989593409    2    2   22    9
 -2.060983325099294e-15    2    2   22   11
 0.03068851296526961    2    2   22   12
 -0.04860727042967935    2    2   22   15
 -1.198095427039253e-15    2    2   22   16
 1.429093202586971e-15    2    2   22   17
 -0.02707970830179421    2    2   22   18
 0.02780384276658088    2    2   22   21
 0.6389574362407533    2    2   22   22
 0.02808884411218999    2    2   23    2
 -1.034343234881648e-15    2    2   23    5
 -0.01252111247872193    2    2   23    6
 0.008818507425969485    2    2   23    7
 3.97910760074505e-15    2    2   23    9
 -0.09875490406229169    2    2   23   11
 -1.924360216485178e-15    2    2   23   15
 -0.003414151820068299    2    2   23   16
 -0.03288611272664766    2    2   23   17
 -3.043592901007069e-15    2    2   23   18
 -1.329976123721366e-15    2    2   23   22
 0.6497613974605693    2    2   23   23
 0.01748067267962254    3    1    1    1
 0.01482854210534723    3    1    2    2
 0.1261928015239332    3    1    3    1
 -0.07065560887679123    3    1    3    3
 -0.03770060354947375    3    1    4    4
 0.01687204301956072    3    1    5    1
 2.014719976013617e-15    3    1    5    2
 -0.003489760707570468    3    1    5    3
 0.02948908664122875    3    1    5    5
 -1.834081118360811e-15    3    1    6    1
 0.02279043067858476    3    1    6    2
 -2.340892290911463e-15    3    1    6    5
 0.01012795500985665    3    1    6    6
 -0.07172508883705205    3    1    7    2
 0.008168812005009412    3    1    7    6
 0.02584952427801724    3    1    7    7
 -0.01564634387850508    3    1    8    1
 2.714716156703886e-15    3    1    8    2
 0.008895218531528883    3    1    8    3
 -0.02047577563292664    3    1    8    5
 1.933094923178178e-15    3    1    8    6
 1.31600746018044e-15    3    1    8    7
 0.06411477101761016    3    1    8    8
 -0.02903962698454758    3    1    9    1
 0.04374675631360864    3    1    9    3
 -0.02926319305853956    3    1    9    5
 3.335324464982859e-15    3    1    9    6
 -0.01239984634915578    3    1    9    8
 -0.02880546166805088    3    1    9    9
 0.02435424884256323    3    1   10    4
 -0.03367795736640086    3    1   10   10
 -1.402056373780488e-15    3    1   11    1
 -0.005626767564893175    3    1   11    2
 2.807526830729203e-15    3    1   11    3
 -1.284021714460034e-15    3    1   11    5
 -0.001131013453367299    3    1   11    6
 -0.008791594647247646    3    1   11    7
 -0.02723325593173235    3    1   11   11
 -0.02374524958433925    3    1   12    1
 -0.05029286181594222    3    1   12    3
 -0.01074699368076139    3    1   12    5
 -0.009081547125822891    3    1   12    8
 -0.05900191402781933    3    1   12    9
 -3.503705075882659e-15    3    1   12   11
 0.01277224742703991    3    1   12   12
 0.06094923575499025    3    1   13   13
 0.05422215744315839    3    1   14    4
 0.01388823503561122    3    1   14   10
 0.04068411719577167    3    1   14   14
 0.002990733977664751    3    1   15    1
 -0.04711469211496524    3    1   15    3
 -0.003045445648960007    3    1   15    5
 1.262678487185116e-15    3    1   15    7
 0.007408918361124767    3    1   15    8
 0.06356709963751644    3    1   15    9
 3.450039177167981e-15    3    1   15   11
 0.02647049219674024    3    1   15   12
 -0.01666657757763484    3    1   15   15
 0.004361329979282309    3    1   16    2
 -1.228333456449236e-15    3    1   16    3
 0.01147813234901439    3    1   16    6
 -0.03687191120440217    3    1   16    7
 1.450971751050178e-15    3    1   16    8
 2.778478386894538e-15    3    1   16    9
 -0.02096779719141614    3    1   16   11
 -1.832555370205629e-15    3    1   16   15
 0.05751637625215177    3    1   16   16
 -0.05545080369968666    3    1   17    2
 3.342407156600837e-15    3    1   17    5
 0.03258198772956395    3    1   17    6
 -0.01903703895763149    3    1   17    7
 -1.495891144848921e-15    3    1   17    9
 0.04056220837161383    3    1   17   11
 -1.06528426173912e-15    3    1   17   12
 1.626138676069613e-15    3    1   17   15
 -0.0192100439753173    3    1   17   16
 0.02605938832309597    3    1   17   17
 -0.01215993554370658    3    1   18    1
 -3.658652553823594e-15    3    1   18    2
 -0.01499814305254648    3    1   18    3
 -0.004596508558967054    3    1   18    5
 2.765020681602863e-15    3    1   18    6
 -1.136557656997551e-15    3    1   18    7
 0.003884137063081032    3    1   18    8
 -0.006227388307341009    3    1   18    9
 1.964607734864996e-15    3    1   18   11
 0.01761535080739983    3    1   18   12
 -0.01398965761369947    3    1   18   15
 -1.687411291274994e-15    3    1   18   16
 -1.614123592745688e-15    3    1   18   17
 0.05322062532388593    3    1   18   18
 0.08330116118908039    3    1   19    4
 -0.04054588462780896    3    1   19   10
 -0.03093817005454958    3    1   19   14
 -0.03108045477895907    3    1   19   19
 -1.183814402402144e-15    3    1   20    4
 -0.02783062078570467    3    1   20   13
 -0.04596262517687904    3    1   20   20
 -0.02097836271916733    3    1   21    1
 -0.0766946533189881    3    1   21    3
 -0.02958904625672917    3    1   21    5
 3.026225003392771e-15    3    1   21    6
 2.205163364064721e-15    3    1   21    7
 0.04541450935545751    3    1   21    8
 0.03972416122082287    3    1   21    9
 2.104093059231609e-15    3    1   21   11
 -0.02502705417543168    3    1   21   12
 -0.01975978833201027    3    1   21   15
 1.013365235531802e-15    3    1   21   17
 -0.01641680777645785    3    1   21   18
 -0.02484693787647414    3    1   21   21
 -0.003572861488297009    3    1   22    1
 0.00184674883441121    3    1   22    3
 0.00226238992525022    3    1   22    5
 -1.364785679848602e-15    3    1   22    7
 -0.02744060357062299    3    1   22    8
 0.01713596368734132    3    1   22    9
 0.006542357250183711    3    1   22   12
 0.002021382694112167    3    1   22   15
 -2.88008368982347e-15    3    1   22   17
 0.04444205042726825    3    1   22   18
 -0.01079898083048879    3    1   22   21
 -0.03324634065401979    3    1   22   22
 0.04461628810480414    3    1   23    2
 -2.927163985804685e-15    3    1   23    5
 -0.0320006531087063    3    1   23    6
 0.04773045164545364    3    1   23    7
 -2.169765256461882e-15    3    1   23    8
 -0.02453165451007933    3    1   23   11
 0.008664931956599564    3    1   23   16
 0.03992126603550439    3    1   23   17
 3.121327900299965e-15    3    1   23   18
 -0.02871282907322714    3    1   23   23
 0.01771502722562363    3    2    2    1
 0.04052209752879012    3    2    3    2
 -0.00516643875218116    3    2    5    2
 -3.368341061687764e-15    3    2    5    5
 0.007793336488204658    3    2    6    1
 -0.006312873389231188    3    2    6    3
 -0.01689777018003357    3    2    6    5
 3.651465970330119e-15    3    2    6    6
 -0.03434930079592755    3    2    7    1
 -0.006467325408420115    3    2    7    3
 0.009325533847564528    3    2    7    5
 -3.127707659372809e-15    3    2    7    7
 1.277623453450903e-15    3    2    8    1
 0.02357618104962402    3    2    8    2
 0.01095946525215505    3    2    8    6
 -0.04425577976412769    3    2    8    7
 3.433451655116907e-15    3    2    8    8
 -0.01350476037731284    3    2    9    2
 0.008514718160714457    3    2    9    6
 -0.003440047430772524    3    2    9    7
 -1.537790167324405e-15    3    2    9    9
 -0.00379710984360807    3    2   11    1
 -0.007123002718772575    3    2   11    3
 -0.003862230958411746    3    2   11    5
 0.01518602770364962    3    2   11    8
 0.01532884394027995    3    2   11    9
 1.23504134578933e-15    3    2   11   11
 -0.009541858161834333    3    2   12    2
 -7.08294766412029e-06    3    2   12    6
 0.02118449711633634    3    2   12    7
 0.01266278183628528    3    2   12   11
 0.01154008935194482    3    2   13    4
 0.0124980619266243    3    2   13   10
 1.499944127454478e-15    3    2   13   13
 0.0472647567463476    3    2   14   13
 -1.283963291627133e-15    3    2   14   14
 -0.003552458848209974    3    2   15    2
 -0.004620221149439248    3    2   15    6
 0.01438470264387922    3    2   15    7
 -0.001380219725310888    3    2   15   11
 0.0006439753123521018    3    2   16    1
 0.0153219638802848    3    2   16    3
 0.001057380763713427    3    2   16    5
 -0.01318284351543314    3    2   16    8
 0.02202315679351475    3    2   16    9
 1.169483163204493e-15    3    2   16   11
 -0.03094298322309962    3    2   16   12
 -0.006212473948554305    3    2   16   15
 -0.02935377231401389    3    2   17    1
 0.007056957638449605    3    2   17    3
 -0.01187534268875947    3    2   17    5
 1.08250470736231e-15    3    2   17    6
 0.006760479726491513    3    2   17    8
 -0.001787829681392072    3    2   17    9
 -1.15925961443217e-15    3    2   17   11
 -0.001570446557774645    3    2   17   12
 0.01231439836450157    3    2   17   15
 -5.768256309323783e-15    3    2   17   17
 -1.970022601537185e-15    3    2   18    1
 -0.008150023797193894    3    2   18    2
 0.0082482147663346    3    2   18    6
 0.006309494095019777    3    2   18    7
 0.01037103194235602    3    2   18   11
 -0.002081358313770605    3    2   18   16
 0.04449251715438759    3    2   18   17
 5.954863809699051e-15    3    2   18   18
 -0.007238390243855217    3    2   19   13
 -0.01325824936304592    3    2   20    4
 0.0003732354175781456    3    2   20   10
 -0.005917529800590462    3    2   20   14
 0.02914818690230517    3    2   20   19
 -0.004979144116306304    3    2   21    2
 0.003354043943062006    3    2   21    6
 -0.009850042614696269    3    2   21    7
 0.0007984109291861601    3    2   21   11
 0.01380913389324559    3    2   21   16
 0.0006496453526247649    3    2   21   17
 -0.01916123047262357    3    2   22    2
 0.006312748452587699    3    2   22    6
 0.004166420957058523    3    2   22    7
 0.000746044849264876    3    2   22   11
 0.002481651281053414    3    2   22   16
 0.008675012470352333    3    2   22   17
 0.02266059610711833    3    2   23    1
 -0.02011453528803502    3    2   23    3
 0.007838607662895769    3    2   23    5
 -0.01167461112745498    3    2   23    8
 0.006253274231814308    3    2   23    9
 0.007034384909967936    3    2   23   12
 -0.009653672055767681    3    2   23   15
 0.01108645281203823    3    2   23   18
 -0.01247845042670651    3    2   23   21
 0.03469648919391644    3    2   23   22
 0.6795722709082564    3    3    1    1
 0.6050129306232753    3    3    2    2
 -0.07065560887679133    3    3    3    1
 0.7277083056607746    3    3    3    3
 0.6640049678824895    3    3    4    4
 0.07651458719839604    3    3    5    1
 -1.130241715047789e-14    3    3    5    2
 0.05757764050401055    3    3    5    3
 0.3397991992935964    3    3    5    5
 -9.028028447601393e-15    3    3    6    1
 -0.113432223082947    3    3    6    2
 -5.733205259567846e-15    3    3    6    3
 -2.922816212335203e-15    3    3    6    5
 0.3264268110879459    3    3    6    6
 -2.797662752934299e-15    3    3    7    1
 0.05771425795416116    3    3    7    2
 -3.3049955639651e-15    3    3    7    3
 -1.313506061358727e-14    3    3    7    5
 -0.09776569254281998    3    3    7    6
 0.482003195336452    3    3    7    7
 -0.04490622511111309    3    3    8    1
 -1.479240638346122e-15    3    3    8    2
 -0.0708779233513868    3    3    8    3
 -0.08868363396840161    3    3    8    5
 1.329037644552053e-14    3    3    8    6
 0.4619403137927987    3    3    8    8
 0.02752760549020989    3    3    9    1
 5.420507985956475e-15    3    3    9    2
 -0.1615177011112668    3    3    9    3
 -0.02902425409223058    3    3    9    5
 2.92852724983941e-15    3    3    9    7
 0.04020322802187622    3    3    9    8
 0.5871978879907855    3    3    9    9
 -0.1701148386909937    3    3   10    4
 0.5861448380261522    3    3   10   10
 2.586818213227978e-15    3    3   11    1
 -0.1093620217879434    3    3   11    2
 -8.908849655935958e-15    3    3   11    3
 7.877598555793194e-15    3    3   11    5
 0.09377126861802199    3    3   11    6
 -0.01459368769817113    3    3   11    7
 2.426819357718066e-15    3    3   11    8
 4.358655532178451e-15    3    3   11    9
 0.5195586815464149    3    3   11   11
 0.02565456107530465    3    3   12    1
 -0.02088450464548252    3    3   12    3
 0.04193099285561422    3    3   12    5
 -3.837833582696072e-15    3    3   12    6
 0.004813460169882245    3    3   12    8
 0.02679386654721861    3    3   12    9
 2.101705760679021e-15    3    3   12   11
 0.5068723401021134    3    3   12   12
 0.4598531728858011    3    3   13   13
 -0.02036439367660935    3    3   14    4
 0.0168524679086787    3    3   14   10
 0.4695520331711155    3    3   14   14
 -0.09886886624478915    3    3   15    1
 -1.275516360146806e-15    3    3   15    2
 0.0681673898809473    3    3   15    3
 -0.05904486288060373    3    3   15    5
 8.869463235809935e-15    3    3   15    6
 -0.01960643780679525    3    3   15    8
 -0.06441483919563343    3    3   15    9
 -3.755445263968e-15    3    3   15   11
 -0.03422141057583254    3    3   15   12
 0.5612392362425633    3    3   15   15
 -2.296883573398825e-15    3    3   16    1
 0.01421566055981891    3    3   16    2
 1.859282511096299e-15    3    3   16    3
 -1.805929524221755e-15    3    3   16    5
 -0.003723374646891687    3    3   16    6
 0.005689802098625602    3    3   16    7
 -1.520620805783924e-15    3    3   16    9
 0.0001171316428147884    3    3   16   11
 2.746497714852212e-15    3    3   16   15
 0.4441461192436257    3    3   16   16
 -2.255243773453344e-15    3    3   17    1
 0.0439034040775356    3    3   17    2
 -1.482776249814869e-15    3    3   17    3
 -6.786916101803843e-15    3    3   17    5
 -0.0451133839537689    3    3   17    6
 0.1202422731057391    3    3   17    7
 2.772456240861542e-15    3    3   17    8
 6.402691166146781e-15    3    3   17    9
 -0.08069895949902771    3    3   17   11
 -1.738754771027789e-15    3    3   17   12