 &FCI NORB=  16,NELEC= 8,MS2=0,
  ORBSYM=1,1,1,1,1,1,1,1,1,1,1,1,1,1,1,1,
  ISYM=1,
 &END
 0.359634686770001    1    1    1    1
 -1.802882606180714e-06    1    1    2    1
 0.2869661845496585    1    1    2    2
 -0.06830419627619252    1    1    3    1
 -2.222968152383032e-06    1    1    3    2
 0.2739401712985947    1    1    3    3
 1.758582619140427e-06    1    1    4    1
 -0.07201066847251474    1    1    4    2
 -2.927733613745747e-07    1    1    4    3
 0.2945113384988295    1    1    4    4
 0.003604974945560874    1    1    5    1
 6.618794829661934e-07    1    1    5    2
 -0.06926132294100597    1    1    5    3
 6.572698789472994e-07    1    1    5    4
 0.292398034430585    1    1    5    5
 7.858553963805214e-08    1    1    6    1
 0.00716299002015098    1    1    6    2
 1.938220659335336e-07    1    1    6    3
 0.06747997086841025    1    1    6    4
 8.790606105971904e-07    1    1    6    5
 0.2627304477465822    1    1    6    6
 0.004442873756325602    1    1    7    1
 4.746959166043207e-07    1    1    7    2
 0.001387593479117639    1    1    7    3
 -1.016149122709328e-06    1    1    7    4
 0.07637708546367333    1    1    7    5
 -2.023380014492156e-06    1    1    7    6
 0.3096317556148552    1    1    7    7
 -1.583605971329839e-07    1    1    8    1
 -0.001412898744799303    1    1    8    2
 -5.416841805698521e-08    1    1    8    3
 0.013069605117136    1    1    8    4
 1.481818482508253e-06    1    1    8    5
 0.05389457431409889    1    1    8    6
 1.359983984971406e-06    1    1    8    7
 0.3955096881414708    1    1    8    8
 0.04750569756918571    1    1    9    1
 1.955507377038253e-06    1    1    9    2
 -0.009978982697196099    1    1    9    3
 1.045617868438057e-06    1    1    9    4
 0.003710047151865804    1    1    9    5
 -1.480495268736169e-06    1    1    9    6
 -0.00113219609642892    1    1    9    7
 1.623270184380212e-06    1    1    9    8
 0.2916573017362725    1    1    9    9
 6.626598744266951e-06    1    1   10    1
 -0.01871300499300101    1    1   10    2
 -1.491797945064458e-06    1    1   10    3
 -0.005417289139057888    1    1   10    4
 5.411941061065138e-07    1    1   10    5
 0.011238094062121    1    1   10    6
 -3.80810770449487e-08    1    1   10    7
 -0.01283682121573253    1    1   10    8
 1.621677201779622e-05    1    1   10    9
 0.1812739790779449    1    1   10   10
 -0.02365920782363897    1    1   11    1
 2.626306101209896e-07    1    1   11    2
 0.02651922612171541    1    1   11    3
 -9.979469056567722e-07    1    1   11    4
 0.003196847207547093    1    1   11    5
 4.001887170617824e-07    1    1   11    6
 -0.0118753529355794    1    1   11    7
 -6.070899003876623e-07    1    1   11    8
 -0.0701008426058622    1    1   11    9
 -9.496133272506417e-06    1    1   11   10
 0.2107543547697216    1    1   11   11
 1.256445451324174e-07    1    1   12    1
 0.03168266931987024    1    1   12    2
 -1.243239292281601e-06    1    1   12    3
 -0.03045676261844822    1    1   12    4
 6.755556028997659e-07    1    1   12    5
 0.00861498775733264    1    1   12    6
 1.299115443343632e-07    1    1   12    7
 -0.01309076362753924    1    1   12    8
 6.039800079351448e-06    1    1   12    9
 -0.04497375153024948    1    1   12   10
 -3.829259236814018e-07    1    1   12   11
 0.2592603561972426    1    1   12   12
 0.01002668999753945    1    1   13    1
 7.221017650974085e-08    1    1   13    2
 -0.02346203590693809    1    1   13    3
 4.364650259380891e-07    1    1   13    4
 0.03557271127407054    1    1   13    5
 3.61032770050046e-08    1    1   13    6
 -0.002311847902325132    1    1   13    7
 -6.149385821771555e-09    1    1   13    8
 0.02559224191559444    1    1   13    9
 4.177869751003455e-06    1    1   13   10
 -0.04862014406564965    1    1   13   11
 2.551485899985402e-06    1    1   13   12
 0.2645562474989737    1    1   13   13
 -3.786180770018391e-07    1    1   14    1
 0.01187566337055246    1    1   14    2
 1.109705284848879e-07    1    1   14    3
 -0.03169872313801791    1    1   14    4
 -6.540935838746727e-07    1    1   14    5
 -0.0357104927640882    1    1   14    6
 4.087728628314106e-07    1    1   14    7
 0.001943369253996375    1    1   14    8
 1.184078951882835e-06    1    1   14    9
 -0.01692238141352071    1    1   14   10
 1.191055450986562e-06    1    1   14   11
 0.04869665390110424    1    1   14   12
 -1.746048092611829e-06    1    1   14   13
 0.2791813619938103    1    1   14   14
 -0.001837249126164365    1    1   15    1
 1.560139994834149e-07    1    1   15    2
 -0.0003219896585295796    1    1   15    3
 -2.525302942791624e-07    1    1   15    4
 0.01917889867726382    1    1   15    5
 -5.214126548250376e-07    1    1   15    6
 0.04192761720679535    1    1   15    7
 1.118746397138597e-06    1    1   15    8
 -0.01034242343521307    1    1   15    9
 -1.413742017680143e-06    1    1   15   10
 -0.02295734289680964    1    1   15   11
 1.287055825982397e-06    1    1   15   12
 0.0340554991815827    1    1   15   13
 5.960409972666075e-07    1    1   15   14
 0.3008059530212468    1    1   15   15
 -5.875679565476932e-09    1    1   16    1
 0.001679067691854522    1    1   16    2
 5.966939446260759e-08    1    1   16    3
 -0.0006720271653036142    1    1   16    4
 -8.880462329104012e-09    1    1   16    5
 -0.005010828103484011    1    1   16    6
 1.953951941452937e-07    1    1   16    7
 -0.05900567247717776    1    1   16    8
 -2.454081415519783e-06    1    1   16    9
 0.01790434744247595    1    1   16   10
 4.308032589429973e-07    1    1   16   11
 0.01458334740848966    1    1   16   12
 -3.890223689219216e-07    1    1   16   13
 0.03625443484386633    1    1   16   14
 -5.349352189718158e-07    1    1   16   15
 0.310360721526752    1    1   16   16
 -1.802882606196427e-06    2    1    1    1
 0.1211544536885024    2    1    2    1
 1.600041054057771e-06    2    1    2    2
 -1.433288043411938e-06    2    1    3    1
 0.07491656968719744    2    1    3    2
 1.070112804077891e-06    2    1    3    3
 -0.04700047193432472    2    1    4    1
 -4.208875431760717e-07    2    1    4    2
 0.08573103422609303    2    1    4    3
 -1.363176371124734e-06    2    1    4    4
 5.790930016840801e-07    2    1    5    1
 -0.04861492874956508    2    1    5    2
 1.086032538881958e-06    2    1    5    3
 0.06244765032521022    2    1    5    4
 -8.329942243889019e-07    2    1    5    5
 0.00422503408737565    2    1    6    1
 1.872726305659047e-07    2    1    6    2
 0.03960425260453537    2    1    6    3
 -7.484536727801408e-07    2    1    6    4
 -0.08782918311712451    2    1    6    5
 1.161730006851177e-06    2    1    6    6
 2.673928865026967e-07    2    1    7    1
 -0.004395210487812472    2    1    7    2
 2.123285042133121e-07    2    1    7    3
 0.05205288801390157    2    1    7    4
 6.87404608686802e-07    2    1    7    5
 0.09024809589447759    2    1    7    6
 4.525794416691586e-07    2    1    7    7
 0.002665591908071745    2    1    8    1
 -2.811067642398237e-07    2    1    8    2
 0.00231400092546916    2    1    8    3
 3.771194396514768e-07    2    1    8    4
 -0.05419858695055402    2    1    8    5
 7.681684257160653e-07    2    1    8    6
 -0.1130355917435815    2    1    8    7
 -1.109436195382317e-06    2    1    8    8
 1.449769744453059e-06    2    1    9    1
 0.02898912038416169    2    1    9    2
 1.885269445274635e-06    2    1    9    3
 -0.008884705422553929    2    1    9    4
 9.595775589965681e-07    2    1    9    5
 -0.002081161325892589    2    1    9    6
 -1.452787236711114e-06    2    1    9    7
 0.006831893947694611    2    1    9    8
 1.661672948797774e-05    2    1    9    9
 -0.01475778220885896    2    1   10    1
 3.417790319382102e-06    2    1   10    2
 -0.01720035113431482    2    1   10    3
 -1.371851252761966e-06    2    1   10    4
 -0.005476357197326177    2    1   10    5
 -5.7519750574915e-08    2    1   10    6
 0.01172822212849903    2    1   10    7
 8.712802877760189e-07    2    1   10    8
 -0.07089855919194318    2    1   10    9
 -1.579825649392909e-05    2    1   10   10
 2.479679697614354e-07    2    1   11    1
 0.0013124476348225    2    1   11    2
 7.429759418854802e-08    2    1   11    3
 0.02138893349397053    2    1   11    4
 -6.077444467499778e-07    2    1   11    5
 -0.007669279840671896    2    1   11    6
 2.258470454580426e-07    2    1   11    7
 0.01046600115855046    2    1   11    8
 7.354146272847277e-06    2    1   11    9
 -0.05503560972406817    2    1   11   10
 -3.072706044158475e-06    2    1   11   11
 0.02672618505725653    2    1   12    1
 1.666849144135604e-08    2    1   12    2
 0.001944926278444062    2    1   12    3
 -4.701134750837858e-07    2    1   12    4
 -0.02780567931663123    2    1   12    5
 -7.991447716071674e-08    2    1   12    6
 0.006144974533624423    2    1   12    7
 -2.99658779585116e-07    2    1   12    8
 0.07637042491969658    2    1   12    9
 1.09081583200987e-05    2    1   12   10
 -0.04622804318615499    2    1   12   11
 9.927323126295224e-07    2    1   12   12
 5.785742592357642e-08    2    1   13    1
 -0.01448762373594468    2    1   13    2
 -5.756193266788838e-08    2    1   13    3
 -0.00864992754823587    2    1   13    4
 -2.3845861067184e-08    2    1   13    5
 -0.03179161716858982    2    1   13    6
 -6.838311672715158e-08    2    1   13    7
 0.003021886288728573    2    1   13    8
 -1.759094001610323e-06    2    1   13    9
 0.01572270349459343    2    1   13   10
 -9.66576129871385e-07    2    1   13   11
 -0.07563972738751891    2    1   13   12
 1.978110794497416e-06    2    1   13   13
 0.009882989588748836    2    1   14    1
 1.081505311004697e-07    2    1   14    2
 -0.01802265187968859    2    1   14    3
 1.500092534297875e-07    2    1   14    4
 -0.005565017228286125    2    1   14    5
 4.259876362956442e-07    2    1   14    6
 -0.03540616428338083    2    1   14    7
 6.696118652836028e-08    2    1   14    8
 0.01925255224520847    2    1   14    9
 2.828256519360482e-06    2    1   14   10
 -0.03134878153804955    2    1   14   11
 1.844757586070047e-06    2    1   14   12
 0.07064864401789725    2    1   14   13
 1.155019273690366e-07    2    1   14   14
 1.479687235159279e-07    2    1   15    1
 -0.002756666782319263    2    1   15    2
 -3.320634604356519e-08    2    1   15    3
 0.005684877487850697    2    1   15    4
 -3.689575657423355e-08    2    1   15    5
 -0.001175622239202639    2    1   15    6
 -2.984059437031208e-07    2    1   15    7
 -0.04939174015316859    2    1   15    8
 -1.311995295103215e-06    2    1   15    9
 0.01316653511093859    2    1   15   10
 -2.018010481436662e-07    2    1   15   11
 -0.01915848343311914    2    1   15   12
 3.735387948190192e-07    2    1   15   13
 -0.08488454413957705    2    1   15   14
 -1.674101059220914e-06    2    1   15   15
 0.001239825427377436    2    1   16    1
 6.886023836186244e-08    2    1   16    2
 -0.00122275466578287    2    1   16    3
 2.445269436357547e-09    2    1   16    4
 0.00583477664429593    2    1   16    5
 -1.080679596066816e-07    2    1   16    6
 0.003401795603008044    2    1   16    7
 1.480622525692744e-08    2    1   16    8
 0.005104584384577732    2    1   16    9
 5.132098790788668e-07    2    1   16   10
 0.006629680062326021    2    1   16   11
 3.829787903746731e-07    2    1   16   12
 0.04043600900763235    2    1   16   13
 -7.320636169839119e-07    2    1   16   14
 0.0581233451921952    2    1   16   15
 2.955964239723938e-07    2    1   16   16
 0.2869661845496586    2    2    1    1
 1.600041054045953e-06    2    2    2    1
 0.3060041448313411    2    2    2    2
 0.01773164293548105    2    2    3    1
 1.741422984285678e-06    2    2    3    2
 0.275245610380475    2    2    3    3
 -9.980099512646689e-08    2    2    4    1
 -0.01011141744325655    2    2    4    2
 2.022217620231275e-06    2    2    4    3
 0.2740032532878918    2    2    4    4
 -0.03493797213296182    2    2    5    1
 -2.921798238610751e-07    2    2    5    2
 -0.01743866693774604    2    2    5    3
 1.721313869276614e-06    2    2    5    4
 0.2797046671375477    2    2    5    5
 1.910441386664101e-07    2    2    6    1
 0.03694934594291828    2    2    6    2
 3.238775163847209e-07    2    2    6    3
 0.01963061165136465    2    2    6    4
 -2.03882511938596e-06    2    2    6    5
 0.2882086042695611    2    2    6    6
 -0.001897189625589091    2    2    7    1
 3.838292677013124e-07    2    2    7    2
 0.0352395898293261    2    2    7    3
 1.971503464340986e-07    2    2    7    4
 0.008467306141727462    2    2    7    5
 1.994928713588943e-06    2    2    7    6
 0.3113054834100029    2    2    7    7
 -2.022919520247094e-07    2    2    8    1
 0.005894501931729374    2    2    8    2
 -3.760709728892085e-07    2    2    8    3
 -0.03040991151140698    2    2    8    4
 -3.366208383181273e-07    2    2    8    5
 -0.01334320563907217    2    2    8    6
 -1.453353270996838e-06    2    2    8    7
 0.2985288357116547    2    2    8    8
 0.03442629000952466    2    2    9    1
 4.395988828301361e-06    2    2    9    2
 0.01546996509445567    2    2    9    3
 2.649339115516341e-06    2    2    9    4
 -0.006472403025633561    2    2    9    5
 -2.532164406253525e-06    2    2    9    6
 -0.007507867508519815    2    2    9    7
 1.412236235521489e-06    2    2    9    8
 0.2539343179911589    2    2    9    9
 4.204672343343233e-06    2    2   10    1
 -0.03120417323396851    2    2   10    2
 8.351933111405608e-07    2    2   10    3
 -0.02033402030294357    2    2   10    4
 -1.426443399389424e-06    2    2   10    5
 0.01817022630643801    2    2   10    6
 -5.080335833818887e-07    2    2   10    7
 -0.01129258176790113    2    2   10    8
 3.092134484837543e-06    2    2   10    9
 0.2203707659799956    2    2   10   10
 -0.004106880130329268    2    2   11    1
 4.780368509935604e-07    2    2   11    2
 0.02694494693435192    2    2   11    3
 -4.282529971327743e-07    2    2   11    4
 0.02442840079967732    2    2   11    5
 3.655754096049356e-07    2    2   11    6
 -0.01454836335006372    2    2   11    7
 -1.687884546847755e-07    2    2   11    8
 -0.01205898608889975    2    2   11    9
 -3.673104629664029e-06    2    2   11   10
 0.2146159032054234    2    2   11   11
 1.745996704746971e-07    2    2   12    1
 0.03168419899434399    2    2   12    2
 -8.121260235787052e-07    2    2   12    3
 -0.01909672760638464    2    2   12    4
 -3.89684576533783e-07    2    2   12    5
 0.03525438324838977    2    2   12    6
 2.916928442134998e-07    2    2   12    7
 -0.003707214876997532    2    2   12    8
 4.761374844880612e-06    2    2   12    9
 -0.03141293197676336    2    2   12   10
 -6.882239147634071e-07    2    2   12   11
 0.2635785775469081    2    2   12   12
 -0.01066149497419429    2    2   13    1
 -5.839572096713918e-07    2    2   13    2
 -0.02260351426700523    2    2   13    3
 -2.558155694104403e-10    2    2   13    4
 0.02860593817478926    2    2   13    5
 -1.168439996110672e-06    2    2   13    6
 -0.03418774574776959    2    2   13    7
 3.009264682153128e-07    2    2   13    8
 -0.02525022166718656    2    2   13    9
 -2.411905027297729e-06    2    2   13   10
 -0.008644949649945135    2    2   13   11
 -1.43545649688542e-06    2    2   13   12
 0.2635846663711572    2    2   13   13
 7.997191562034052e-08    2    2   14    1
 -0.004763147915304341    2    2   14    2
 -4.367103604491628e-07    2    2   14    3
 -0.02665411188737846    2    2   14    4
 -6.518930888216784e-07    2    2   14    5
 -0.02981032502594534    2    2   14    6
 -4.760756113148241e-07    2    2   14    7
 0.02949937751854648    2    2   14    8
 -5.857536413025041e-07    2    2   14    9
 0.005133964221286771    2    2   14   10
 -6.649843861236142e-07    2    2   14   11
 -0.001153930943923528    2    2   14   12
 1.231455429470181e-06    2    2   14   13
 0.2683678062678688    2    2   14   14
 -0.00377763987170749    2    2   15    1
 5.413865127522665e-08    2    2   15    2
 0.006326725309890678    2    2   15    3
 -1.264042539818139e-07    2    2   15    4
 0.0165204205673393    2    2   15    5
 -5.098509559325705e-07    2    2   15    6
 0.0369971199413846    2    2   15    7
 5.788069905743077e-08    2    2   15    8
 -0.01332322312433875    2    2   15    9
 -1.960511228900253e-06    2    2   15   10
 0.00932496325465728    2    2   15   11
 -4.071571066741568e-07    2    2   15   12
 -0.006209968074542101    2    2   15   13
 -1.169602045977106e-06    2    2   15   14
 0.2623090866428436    2    2   15   15
 6.973940109514427e-08    2    2   16    1
 -0.0007595081239251823    2    2   16    2
 4.263730056266968e-08    2    2   16    3
 -1.03723158670523e-06    2    2   16    4
 7.563231933094235e-08    2    2   16    5
 -0.005591773845570353    2    2   16    6
 -2.125920539996394e-07    2    2   16    7
 -0.0104448943464455    2    2   16    8
 -5.938557015842558e-07    2    2   16    9
 0.006575732900527737    2    2   16   10
 2.976227262409419e-07    2    2   16   11
 -0.01433407256726156    2    2   16   12
 6.134260631281092e-07    2    2   16   13
 -0.003994957954038166    2    2   16   14
 8.689825605673861e-07    2    2   16   15
 0.2482765935945008    2    2   16   16
 -0.06830419627619252    3    1    1    1
 -1.433288043410406e-06    3    1    2    1
 0.01773164293548105    3    1    2    2
 0.08079060146139454    3    1    3    1
 6.832261826021326e-07    3    1    3    2
 0.002161948669773556    3    1    3    3
 -1.259806657310846e-07    3    1    4    1
 0.0592052291214458    3    1    4    2
 -1.245369775806879e-06    3    1    4    3
 -0.01969705391934597    3    1    4    4
 -0.03503671987053243    3    1    5    1
 8.668194806564214e-07    3    1    5    2
 0.04827039267782914    3    1    5    3
 -1.477901569395202e-06    3    1    5    4
 -0.01162720700388704    3    1    5    5
 -1.094590384217308e-07    3    1    6    1
 0.02825630555663453    3    1    6    2
 -1.301887412230133e-06    3    1    6    3
 -0.04516929193102677    3    1    6    4
 7.720199021085752e-07    3    1    6    5
 0.02465322429217355    3    1    6    6
 -0.004459686570244559    3    1    7    1
 1.179856347114994e-08    3    1    7    2
 0.03146100789849513    3    1    7    3
 -7.5833060410724e-07    3    1    7    4
 -0.06449689078355408    3    1    7    5
 1.637183541706662e-07    3    1    7    6
 0.001465283048629981    3    1    7    7
 -1.080677433202413e-07    3    1    8    1
 0.005849199170087232    3    1    8    2
 -3.181605871923382e-07    3    1    8    3
 -0.03991414119215208    3    1    8    4
 2.234643761312839e-07    3    1    8    5
 -0.06309486073543796    3    1    8    6
 1.655050260396569e-06    3    1    8    7
 -0.09120130672764752    3    1    8    8
 -0.01217458493362289    3    1    9    1
 1.189568447528427e-06    3    1    9    2
 0.02388330732728081    3    1    9    3
 1.814501893973879e-06    3    1    9    4
 -0.009000752486743801    3    1    9    5
 -9.131610245818636e-07    3    1    9    6
 -0.005245294887997153    3    1    9    7
 -4.752692371831373e-07    3    1    9    8
 -0.03556879108349981    3    1    9    9
 -1.679682027003329e-06    3    1   10    1
 -0.01178985125540916    3    1   10    2
 2.904401025718468e-06    3    1   10    3
 -0.01431118113612179    3    1   10    4
 -1.49606293565204e-06    3    1   10    5
 0.006544754501819061    3    1   10    6
 -7.969572147955374e-07    3    1   10    7
 0.001756584148620468    3    1   10    8
 -9.578218030098128e-06    3    1   10    9
 0.03699966285972395    3    1   10   10
 0.01837729094014984    3    1   11    1
 9.409030777811013e-08    3    1   11    2
 0.0006124425455204264    3    1   11    3
 -3.087924722550211e-07    3    1   11    4
 0.01984902572793102    3    1   11    5
 3.449903994499663e-07    3    1   11    6
 -0.002891599720264716    3    1   11    7
 3.410117487018762e-09    3    1   11    8
 0.05467361969016987    3    1   11    9
 7.808751414414035e-06    3    1   11   10
 0.004174625344226467    3    1   11   11
 -9.403918635063087e-07    3    1   12    1
 -5.669849890083305e-05    3    1   12    2
 3.162212748221904e-07    3    1   12    3
 0.01092221664484212    3    1   12    4
 7.965390208251293e-08    3    1   12    5
 0.02526950490410996    3    1   12    6
 -1.355346099157597e-07    3    1   12    7
 0.007968153671352831    3    1   12    8
 -4.120572410375319e-06    3    1   12    9
 0.01314026344594903    3    1   12   10
 1.528773520136179e-06    3    1   12   11
 0.00397872884626709    3    1   12   12
 -0.01925779859622645    3    1   13    1
 -4.00121058501462e-08    3    1   13    2
 0.000340011236972094    3    1   13    3
 -7.187763883891228e-08    3    1   13    4
 -0.006211533039541634    3    1   13    5
 1.0360021910391e-07    3    1   13    6
 -0.03017127735914702    3    1   13    7
 1.231444601522851e-07    3    1   13    8
 -0.04760620747516401    3    1   13    9
 -6.753585448021321e-06    3    1   13   10
 0.03741904889564778    3    1   13   11
 -7.313303753031259e-07    3    1   13   12
 -0.0002648441130886866    3    1   13   13
 1.071028751713899e-07    3    1   14    1
 -0.01603541812239601    3    1   14    2
 1.950722870813272e-07    3    1   14    3
 0.004772013980832766    3    1   14    4
 2.146965518899367e-07    3    1   14    5
 0.00527403492387911    3    1   14    6
 4.949771058705801e-07    3    1   14    7
 0.02511136736287147    3    1   14    8
 -2.336634630392502e-06    3    1   14    9
 0.02124850389088249    3    1   14   10
 -5.360798121396215e-07    3    1   14   11
 -0.04760551301549391    3    1   14   12
 2.263178475592445e-08    3    1   14   13
 -0.01040881099765276    3    1   14   14
 -0.001528458016194136    3    1   15    1
 -2.195099438091666e-08    3    1   15    2
 0.00637656153722053    3    1   15    3
 -9.672578487284549e-08    3    1   15    4
 -0.002950006964371768    3    1   15    5
 7.066812158948383e-08    3    1   15    6
 -0.005181291842296811    3    1   15    7
 7.933141731454772e-07    3    1   15    8
 -0.00173054846574901    3    1   15    9
 -7.896701602552774e-07    3    1   15   10
 0.03001971736641129    3    1   15   11
 -9.262104420859263e-07    3    1   15   12
 -0.03792545800955542    3    1   15   13
 1.61761602653531e-06    3    1   15   14
 -0.03677435665286433    3    1   15   15
 2.449790828457535e-08    3    1   16    1
 -0.002040813515578391    3    1   16    2
 2.889446669785454e-08    3    1   16    3
 0.0001342389023102588    3    1   16    4
 -1.50967818446038e-07    3    1   16    5
 -0.001032551915408985    3    1   16    6
 -4.206611541632255e-07    3    1   16    7
 0.04546463919303391    3    1   16    8
 1.573644169650775e-06    3    1   16    9
 -0.01093457734487339    3    1   16   10
 -4.537634867317747e-07    3    1   16   11
 -0.02674649730212776    3    1   16   12
 -5.670202803755272e-07    3    1   16   13
 -0.03740523133100717    3    1   16   14
 -8.988088685559404e-07    3    1   16   15
 -0.05823849279227218    3    1   16   16
 -2.222968152380152e-06    3    2    1    1
 0.07491656968719744    3    2    2    1
 1.74142298426686e-06    3    2    2    2
 6.832261826085091e-07    3    2    3    1
 0.1043536345477858    3    2    3    2
 1.014306648571549e-06    3    2    3    3
 0.02532896387150799    3    2    4    1
 1.117842972563635e-06    3    2    4    2
 0.08030838624625458    3    2    4    3
 -2.003981040947892e-06    3    2    4    4
 4.157728837306724e-07    3    2    5    1
 -0.008930939994945946    3    2    5    2
 1.450784065130864e-06    3    2    5    3
 0.06205289547878833    3    2    5    4
 -1.351679771730894e-06    3    2    5    5
 0.02549018909994879    3    2    6    1
 1.222427595469362e-07    3    2    6    2
 0.002302354736912462    3    2    6    3
 -1.20215710120292e-06    3    2    6    4
 -0.09378080747659401    3    2    6    5
 1.959060981662999e-06    3    2    6    6
 -3.36360231740632e-09    3    2    7    1
 0.02372629190388524    3    2    7    2
 1.233734650724211e-07    3    2    7    3
 0.01063443875895598    3    2    7    4
 -9.600415865134019e-07    3    2    7    5
 0.1057104600112751    3    2    7    6
 1.741103904235294e-07    3    2    7    7
 0.005375344563136004    3    2    8    1
 -1.955739451139661e-07    3    2    8    2
 -0.02471381841564222    3    2    8    3
 1.535199189167892e-07    3    2    8    4
 0.01134210456107087    3    2    8    5
 -6.995182600372837e-07    3    2    8    6
 -0.06150020330429803    3    2    8    7
 -2.235377806817622e-06    3    2    8    8
 1.314767265712121e-06    3    2    9    1
 0.01851532411346985    3    2    9    2
 4.208441033559449e-06    3    2    9    3
 0.01576367151801593    3    2    9    4
 2.938018577747006e-06    3    2    9    5
 0.002804288826536432    3    2    9    6
 -9.559636756492614e-07    3    2    9    7
 0.005380272932252579    3    2    9    8
 1.603386883012086e-05    3    2    9    9
 -0.01336222912470002    3    2   10    1
 1.481792986620541e-06    3    2   10    2
 -0.02996774595506924    3    2   10    3
 1.519539360487185e-06    3    2   10    4
 -0.02063501204064218    3    2   10    5
 1.148006758761141e-06    3    2   10    6
 0.007174862732076624    3    2   10    7
 8.575143464604504e-07    3    2   10    8
 -0.06851408510942947    3    2   10    9
 -1.325706765053562e-05    3    2   10   10
 2.314150164459288e-07    3    2   11    1
 0.01717928671494876    3    2   11    2
 -4.523371537511123e-08    3    2   11    3
 0.01590333027292609    3    2   11    4
 -5.753508186340447e-07    3    2   11    5
 -0.0274636277522655    3    2   11    6
 2.829912224776144e-07    3    2   11    7
 0.001160766886822508    3    2   11    8
 1.193827667977069e-05    3    2   11    9
 -0.0883643948118831    3    2   11   10
 -3.666663636398563e-06    3    2   11   11
 0.006453411858721174    3    2   12    1
 -4.838681322143734e-07    3    2   12    2
 0.008407338185225287    3    2   12    3
 1.360733825019876e-07    3    2   12    4
 -0.02229036208611111    3    2   12    5
 7.569232710001182e-07    3    2   12    6
 0.02354332088147295    3    2   12    7
 3.375491434616222e-08    3    2   12    8
 0.03277323111169809    3    2   12    9
 6.154013492988032e-06    3    2   12   10
 -0.03820990450080047    3    2   12   11
 -3.024165308339102e-08    3    2   12   12
 -1.185092595519272e-07    3    2   13    1
 -0.0184406974748443    3    2   13    2
 -1.684940270502925e-07    3    2   13    3
 -0.006932261519766237    3    2   13    4
 -1.11531062715918e-07    3    2   13    5
 -0.0287116554840015    3    2   13    6
 -8.391961719279177e-07    3    2   13    7
 0.02354316173781485    3    2   13    8
 -1.333774607505056e-06    3    2   13    9
 0.007899495836165563    3    2   13   10
 -5.532515191170924e-07    3    2   13   11
 -0.08549591139086159    3    2   13   12
 2.117522004723216e-06    3    2   13   13
 -0.01213428475371208    3    2   14    1
 -3.60083748885513e-07    3    2   14    2
 -0.01438919170008354    3    2   14    3
 2.073948565165971e-07    3    2   14    4
 -0.00328396335249268    3    2   14    5
 3.301823836019262e-07    3    2   14    6
 -0.01810810896721923    3    2   14    7
 -1.836219341720743e-07    3    2   14    8
 -0.03006943411969827    3    2   14    9
 -2.919965302321507e-06    3    2   14   10
 -0.01716202294204354    3    2   14   11
 1.038469575278551e-07    3    2   14   12
 0.06371168984465472    3    2   14   13
 -4.860498542155826e-07    3    2   14   14
 2.194438899811082e-09    3    2   15    1
 0.005144521993647006    3    2   15    2
 1.737580383572862e-08    3    2   15    3
 0.005024865023114259    3    2   15    4
 -1.84553397885329e-07    3    2   15    5
 0.0005899825907325182    3    2   15    6
 -5.540971577468554e-07    3    2   15    7
 -0.002674647300417902    3    2   15    8
 1.855486609119273e-06    3    2   15    9
 -0.01434531842430074    3    2   15   10
 2.190801608933462e-07    3    2   15   11
 0.007702970210763266    3    2   15   12
 -3.561578240973501e-07    3    2   15   13
 -0.06150039992500556    3    2   15   14
 -2.208486425657217e-06    3    2   15   15
 -0.001272183139772    3    2   16    1
 4.513955204845611e-08    3    2   16    2
 -0.0002518983581006924    3    2   16    3
 -1.204850822617721e-07    3    2   16    4
 -0.0007076107593478545    3    2   16    5
 -2.794303739400233e-07    3    2   16    6
 -0.02576035925204003    3    2   16    7
 6.048530741256183e-07    3    2   16    8
 -0.0003249845382413634    3    2   16    9
 -9.395976113422493e-07    3    2   16   10
 0.02869416738574566    3    2   16   11
 -5.518438826090836e-07    3    2   16   12
 0.009807381629131192    3    2   16   13
 -7.605657355835593e-07    3    2   16   14
 0.03116394430243571    3    2   16   15
 -8.516014198867372e-07    3    2   16   16
 0.2739401712985948    3    3    1    1
 1.070112804093495e-06    3    3    2    1
 0.2752456103804751    3    3    2    2
 0.002161948669773547    3    3    3    1
 1.014306648582055e-06    3    3    3    2
 0.2862008903795282    3    3    3    3
 -3.505964744830727e-07    3    3    4    1
 0.01346316242938826    3    3    4    2
 1.063896389332826e-06    3    3    4    3
 0.266731250122147    3    3    4    4
 0.01172232249499095    3    3    5    1
 2.8668963444497e-07    3    3    5    2
 -0.008746500786606394    3    3    5    3
 7.491971818815502e-07    3    3    5    4
 0.2737766398131737    3    3    5    5
 -4.853222061832827e-07    3    3    6    1
 0.009464739222187404    3    3    6    2
 7.2320947974422e-08    3    3    6    3
 0.007219641694761808    3    3    6    4
 -1.100077619046764e-06    3    3    6    5
 0.2876453141389127    3    3    6    6
 0.02116551789145332    3    3    7    1
 8.883247945103863e-08    3    3    7    2
 0.006494799270516937    3    3    7    3