 &FCI NORB=6 ,NELEC=6 ,MS2=0,
  ORBSYM=1,1,1,1,1,1,
  ISYM=1,
 &END
  6.758279347535e-01    1  1  1  1
 -1.020999659104e-12    2  1  1  1
  3.890729645369e-03    2  1  2  1
  3.550788385438e-01    2  2  1  1
  5.407668102091e-01    2  2  2  2
  3.046405149282e-03    3  1  1  1
 -2.632181660822e-03    3  1  2  2
  1.996999474093e-04    3  1  3  1
 -6.611323868925e-04    3  2  2  1
  1.170699669443e-12    3  2  2  2
  5.090931685488e-03    3  2  3  2
  2.082119485674e-01    3  3  1  1
  2.935063718318e-01    3  3  2  2
  7.071830532671e-04    3  3  3  1
 -1.020686388382e-12    3  3  3  2
  4.666054059028e-01    3  3  3  3
  6.314857938909e-12    4  1  1  1
  3.470495446076e-04    4  1  2  1
  4.714212275375e-04    4  1  3  2
 -3.237418833401e-12    4  1  3  3
  1.528829480973e-04    4  1  4  1
  5.751201223329e-03    4  2  1  1
  4.702336548256e-03    4  2  2  2
  4.703902808750e-04    4  2  3  1
  6.237672274373e-03    4  2  3  3
  5.099481990850e-03    4  2  4  2
  4.857214494459e-03    4  3  2  1
 -4.971680089968e-12    4  3  3  1
  5.846819041880e-03    4  3  3  2
 -2.302105173704e-12    4  3  3  3
  6.584670890319e-04    4  3  4  1
  3.643385512658e-01    4  3  4  3
  2.081030852160e-01    4  4  1  1
  2.934346397961e-01    4  4  2  2
  7.104611510645e-04    4  4  3  1
  4.667131449943e-01    4  4  3  3
 -3.217100023433e-12    4  4  4  1
  6.255279813670e-03    4  4  4  2
  2.720945194491e-12    4  4  4  3
  4.668210633186e-01    4  4  4  4
 -1.908835149285e-02    5  1  1  1
 -6.838632891294e-03    5  1  2  2
 -6.296080429914e-04    5  1  3  1
 -5.405150534793e-03    5  1  3  3
  6.104202845949e-04    5  1  4  2
 -5.407261464591e-03    5  1  4  4
  5.590985432225e-03    5  1  5  1
 -5.544027208861e-03    5  2  2  1
  2.969901363745e-12    5  2  3  1
 -3.733788515139e-03    5  2  3  2
  1.064027934312e-12    5  2  3  3
  2.716652125079e-03    5  2  4  1
 -3.828617034077e-12    5  2  4  2
 -1.636797198348e-01    5  2  4  3
 -1.059209983027e-12    5  2  4  4
  1.802216806145e-12    5  2  5  1
  3.641324815395e-01    5  2  5  2
 -6.311288900565e-03    5  3  1  1
 -4.694952174661e-03    5  3  2  2
 -4.643187140191e-04    5  3  3  1
 -5.858761354680e-03    5  3  3  3
 -5.068728600560e-03    5  3  4  2
  3.807861954296e-12    5  3  4  3
 -5.875807897605e-03    5  3  4  4
 -6.393484841095e-04    5  3  5  1
  5.040583855425e-03    5  3  5  3
 -2.231196597711e-12    5  4  1  1
  6.393014582338e-04    5  4  2  1
 -3.212336539079e-12    5  4  2  2
 -5.040603070462e-03    5  4  3  2
  2.153249233168e-12    5  4  3  3
 -4.614654292196e-04    5  4  4  1
 -5.751953964181e-03    5  4  4  3
  1.981243137936e-12    5  4  4  4
  4.201023186429e-03    5  4  5  2
  4.991777031867e-03    5  4  5  4
  3.581048679279e-01    5  5  1  1
  5.389954312933e-01    5  5  2  2
 -2.612343417041e-03    5  5  3  1
  1.079390718161e-12    5  5  3  2
  2.922585370829e-01    5  5  3  3
  4.830386490324e-03    5  5  4  2
  2.921855159741e-01    5  5  4  4
 -6.599600214234e-03    5  5  5  1
 -4.835664846299e-03    5  5  5  3
 -3.113422705241e-12    5  5  5  4
  5.373209133768e-01    5  5  5  5
  1.318257394347e-12    6  1  1  1
  5.107143289129e-03    6  1  2  1
 -2.231115209433e-12    6  1  3  1
  3.992389532877e-03    6  1  3  2
  8.903361757619e-04    6  1  4  1
  1.272962433079e-12    6  1  4  2
  4.075634688178e-02    6  1  4  3
 -1.449193440716e-12    6  1  5  1
 -1.093630838011e-01    6  1  5  2
 -4.090042100411e-03    6  1  5  4
  2.132906490897e-01    6  1  6  1
  1.266100268791e-02    6  2  1  1
  1.237076862139e-02    6  2  2  2
  5.149550542970e-04    6  2  3  1
  8.722020065510e-03    6  2  3  3
 -8.485793604286e-04    6  2  4  2
 -1.049832173465e-12    6  2  4  3
  8.728008328926e-03    6  2  4  4
 -5.820705542788e-03    6  2  5  1
  2.342074527194e-12    6  2  5  2
  9.141252513328e-04    6  2  5  3
  1.185487729732e-02    6  2  5  5
 -1.292082854530e-12    6  2  6  1
  7.164978888758e-03    6  2  6  2
 -3.852440588699e-12    6  3  1  1
  4.184659506087e-04    6  3  2  1
  6.306212182435e-04    6  3  3  2
  2.038629691807e-12    6  3  3  3
  2.042960536721e-04    6  3  4  1
  1.222642229499e-03    6  3  4  3
  2.076023480685e-12    6  3  4  4
  4.697206691216e-03    6  3  5  2
 -6.152410174349e-04    6  3  5  4
 -1.173908007217e-03    6  3  6  1
  3.020745572592e-04    6  3  6  3
  2.075082279282e-03    6  4  1  1
 -3.452362542070e-03    6  4  2  2
  2.305556530956e-04    6  4  3  1
  1.611277793722e-03    6  4  3  3
  6.842408515768e-04    6  4  4  2
  3.552905920124e-12    6  4  4  3
  1.616695291895e-03    6  4  4  4
 -5.904365390360e-04    6  4  5  1
 -2.767917801716e-12    6  4  5  2
 -6.710165174182e-04    6  4  5  3
 -3.452424123191e-03    6  4  5  5
  2.990816247661e-12    6  4  6  1
  5.911052888032e-04    6  4  6  2
  2.981228973710e-04    6  4  6  4
 -1.808117339331e-12    6  5  1  1
 -4.966120584712e-03    6  5  2  1
  1.197536577732e-03    6  5  3  2
 -3.883600715426e-04    6  5  4  1
 -6.634795342935e-03    6  5  4  3
  5.463971972618e-03    6  5  5  2
 -1.168224060054e-03    6  5  5  4
  4.230087114630e-03    6  5  6  1
 -5.894366504665e-04    6  5  6  3
  7.021489980671e-03    6  5  6  5
  6.831572586104e-01    6  6  1  1
 -1.101874089179e-12    6  6  2  1
  3.831502979759e-01    6  6  2  2
  1.984929191399e-03    6  6  3  1
  2.155853805395e-01    6  6  3  3
  6.231757949692e-12    6  6  4  1
  7.285787228464e-03    6  6  4  2
  2.154802389029e-01    6  6  4  4
 -1.353536738207e-02    6  6  5  1
 -7.799519169001e-03    6  6  5  3
 -2.412824656394e-12    6  6  5  4
  3.858069013398e-01    6  6  5  5
 -1.204317350197e-12    6  6  6  1
  1.178931664938e-02    6  6  6  2
 -4.214590111008e-12    6  6  6  3
  1.683055712324e-03    6  6  6  4
 -1.948052830159e-12    6  6  6  5
  7.360151360837e-01    6  6  6  6
 -2.225165585813e+00    1  1  0  0
 -1.391331494460e-12    2  1  0  0
 -1.792063153884e+00    2  2  0  0
  4.955563597099e-02    3  1  0  0
 -5.686007220618e-12    3  2  0  0
 -1.498957350225e+00    3  3  0  0
 -5.198314001476e-12    4  1  0  0
  2.828143110689e-01    4  2  0  0
  5.010214465528e-12    4  3  0  0
 -1.496893352153e+00    4  4  0  0
 -2.206104880654e-01    5  1  0  0
  3.745004306666e-12    5  2  0  0
 -2.739147417041e-01    5  3  0  0
 -1.830395638477e+00    5  5  0  0
  1.084465850454e-12    6  1  0  0
  3.666149715432e-01    6  2  0  0
  1.096879531648e-12    6  3  0  0
  8.489753106821e-02    6  4  0  0
 -1.553146500299e-12    6  5  0  0
 -1.637517254645e+00    6  6  0  0
      4.603841735004   0  0  0  0
