 &FCI NORB=8 ,NELEC=8 ,MS2=4,
  ORBSYM=1,1,1,1,1,1,1,1,
  ISYM=1,
 &END
  7.151940233577e-01    1  1  1  1
  3.501141033063e-02    2  1  2  1
  4.763228840067e-01    2  2  1  1
  5.025467194522e-01    2  2  2  2
  1.076713755539e-01    3  1  3  1
  3.949420957858e-02    3  2  3  2
  5.883731157838e-01    3  3  1  1
  4.665249544912e-01    3  3  2  2
  5.536276908947e-01    3  3  3  3
  1.076713755539e-01    4  1  4  1
  3.949420957858e-02    4  2  4  2
  2.415551885672e-02    4  3  4  3
  5.883731157838e-01    4  4  1  1
  4.665249544912e-01    4  4  2  2
  5.053166531813e-01    4  4  3  3
  5.536276908947e-01    4  4  4  4
  9.709370021500e-02    5  1  1  1
  6.464048986784e-03    5  1  2  2
  4.610076328200e-02    5  1  3  3
  4.610076328200e-02    5  1  4  4
  3.978639237504e-02    5  1  5  1
 -6.861229507507e-02    5  2  2  1
  2.065131383512e-01    5  2  5  2
 -1.353634913520e-02    5  3  3  1
  2.433437693602e-02    5  3  5  3
 -1.353634913520e-02    5  4  4  1
  2.433437693602e-02    5  4  5  4
  5.060373386218e-01    5  5  1  1
  5.136499307599e-01    5  5  2  2
  4.761957250713e-01    5  5  3  3
  4.761957250713e-01    5  5  4  4
  2.255690668798e-02    5  5  5  1
  5.374120805469e-01    5  5  5  5
  3.270948118770e-02    6  1  3  2
  3.459502234033e-02    6  1  6  1
  6.740744880798e-02    6  2  3  1
 -3.476556449769e-02    6  2  5  3
  7.421688852137e-02    6  2  6  2
  6.692641107234e-02    6  3  2  1
 -1.348435693996e-01    6  3  5  2
  1.480672511842e-01    6  3  6  3
  1.618583130865e-02    6  4  6  4
 -3.504366583184e-02    6  5  3  2
 -2.225873163563e-02    6  5  6  1
  3.727825424561e-02    6  5  6  5
  5.608301598300e-01    6  6  1  1
  4.948203440347e-01    6  6  2  2
  5.444673342868e-01    6  6  3  3
  5.019160566201e-01    6  6  4  4
  2.995562639233e-02    6  6  5  1
  5.019198132998e-01    6  6  5  5
  5.619626755097e-01    6  6  6  6
  3.270948118770e-02    7  1  4  2
  3.459502234033e-02    7  1  7  1
  6.740744880798e-02    7  2  4  1
 -3.476556449769e-02    7  2  5  4
  7.421688852137e-02    7  2  7  2
  1.618583130865e-02    7  3  6  4
  1.618583130865e-02    7  3  7  3
  6.692641107234e-02    7  4  2  1
 -1.348435693996e-01    7  4  5  2
  1.156955885669e-01    7  4  6  3
  1.480672511842e-01    7  4  7  4
 -3.504366583184e-02    7  5  4  2
 -2.225873163563e-02    7  5  7  1
  3.727825424561e-02    7  5  7  5
  2.127563883330e-02    7  6  4  3
  2.339388964959e-02    7  6  7  6
  5.608301598300e-01    7  7  1  1
  4.948203440347e-01    7  7  2  2
  5.019160566201e-01    7  7  3  3
  5.444673342868e-01    7  7  4  4
  2.995562639233e-02    7  7  5  1
  5.019198132998e-01    7  7  5  5
  5.151748962106e-01    7  7  6  6
  5.619626755097e-01    7  7  7  7
 -4.382913353305e-02    8  1  2  1
  6.061006754074e-02    8  1  5  2
 -8.576353321061e-02    8  1  6  3
 -8.576353321061e-02    8  1  7  4
  8.383913105524e-02    8  1  8  1
 -5.143421746962e-02    8  2  1  1
  2.562199064493e-02    8  2  2  2
 -3.121239713149e-02    8  2  3  3
 -3.121239713149e-02    8  2  4  4
 -1.542993072132e-02    8  2  5  1
  3.349499823585e-02    8  2  5  5
 -1.600292722156e-02    8  2  6  6
 -1.600292722156e-02    8  2  7  7
  4.043638938205e-02    8  2  8  2
 -2.184728359860e-02    8  3  3  2
 -3.034528679730e-02    8  3  6  1
  8.226705017354e-03    8  3  6  5
  3.232705835828e-02    8  3  8  3
 -2.184728359860e-02    8  4  4  2
 -3.034528679730e-02    8  4  7  1
  8.226705017354e-03    8  4  7  5
  3.232705835828e-02    8  4  8  4
 -3.300267538608e-02    8  5  2  1
  1.062314141508e-01    8  5  5  2
 -6.708566021247e-02    8  5  6  3
 -6.708566021247e-02    8  5  7  4
  4.489108952333e-02    8  5  8  1
  7.380639366268e-02    8  5  8  5
 -6.339119789910e-02    8  6  3  1
  3.803327416432e-03    8  6  5  3
 -3.586264872498e-02    8  6  6  2
  4.609081837100e-02    8  6  8  6
 -6.339119789910e-02    8  7  4  1
  3.803327416432e-03    8  7  5  4
 -3.586264872498e-02    8  7  7  2
  4.609081837100e-02    8  7  8  7
  6.682099754833e-01    8  8  1  1
  5.207474211246e-01    8  8  2  2
  5.747288628345e-01    8  8  3  3
  5.747288628345e-01    8  8  4  4
  7.313816656687e-02    8  8  5  1
  5.509734037161e-01    8  8  5  5
  5.766797691633e-01    8  8  6  6
  5.766797691633e-01    8  8  7  7
 -1.702526154309e-02    8  8  8  2
  6.833954457692e-01    8  8  8  8
 -4.827201077192e+00    1  1  0  0
 -3.592891361859e+00    2  2  0  0
 -3.967169903527e+00    3  3  0  0
 -3.967169903527e+00    4  4  0  0
 -3.233481932087e-01    5  1  0  0
 -3.641873746630e+00    5  5  0  0
 -3.458788991413e+00    6  6  0  0
 -3.458788991413e+00    7  7  0  0
  9.168712547766e-02    8  2  0  0
 -2.774570328474e+00    8  8  0  0
    -55.510030195970   0  0  0  0
