 &FCI NORB=12 ,NELEC=8 ,MS2=4,
  ORBSYM=1,2,1,5,6,3,4,5,8,7,3,7,
  ISYM=1,
 &END
  3.758885970222e-01    1  1  1  1
  1.117724377154e-02    2  1  2  1
  3.446571168128e-01    2  2  1  1
  3.571294363160e-01    2  2  2  2
 -1.573981143131e-04    3  1  1  1
 -1.804655025784e-03    3  1  2  2
  1.315428870088e-02    3  1  3  1
  1.038122900686e-04    3  2  2  1
  1.145151920636e-02    3  2  3  2
  3.363304560322e-01    3  3  1  1
  3.292662977387e-01    3  3  2  2
  1.059148006386e-04    3  3  3  1
  3.492135130455e-01    3  3  3  3
  1.802609934319e-02    4  1  4  1
  1.071061686685e-02    4  2  4  2
  3.146710400519e-02    4  3  4  1
  1.357986217159e-01    4  3  4  3
  3.403099657381e-01    4  4  1  1
  3.319180065595e-01    4  4  2  2
  6.244480899718e-03    4  4  3  1
  3.516411334693e-01    4  4  3  3
  3.580321105446e-01    4  4  4  4
  2.763749817535e-03    5  1  4  2
  9.640129155268e-03    5  1  5  1
  2.847074915568e-02    5  2  4  1
  1.112972727023e-01    5  2  4  3
  1.323242697504e-01    5  2  5  2
  1.070265769866e-02    5  3  4  2
  1.065358813155e-04    5  3  5  1
  1.163369390143e-02    5  3  5  3
  3.187950997503e-03    5  4  2  1
  1.118841299389e-02    5  4  3  2
  1.201073521768e-02    5  4  5  4
  3.453770974868e-01    5  5  1  1
  3.587925122282e-01    5  5  2  2
 -1.743171537087e-03    5  5  3  1
  3.314957135039e-01    5  5  3  3
  3.348351082978e-01    5  5  4  4
  3.618315917712e-01    5  5  5  5
  5.269412085351e-02    6  1  6  1
  9.371706794172e-03    6  2  6  2
 -4.627978171994e-02    6  3  6  1
  6.940637895617e-02    6  3  6  3
  4.428141615333e-02    6  4  6  4
  9.208449563039e-03    6  5  6  5
  3.539845572180e-01    6  6  1  1
  3.370337772042e-01    6  6  2  2
 -1.066768561953e-02    6  6  3  1
  3.466315196591e-01    6  6  3  3
  3.447549480765e-01    6  6  4  4
  3.390442377057e-01    6  6  5  5
  3.650322648742e-01    6  6  6  6
  5.878813480766e-03    7  1  6  2
  1.007990925836e-02    7  1  7  1
  5.673066418749e-02    7  2  6  1
 -6.423631728893e-02    7  2  6  3
  1.004724940779e-01    7  2  7  2
 -7.611482043474e-03    7  3  6  2
  1.592545824316e-03    7  3  7  1
  1.265318833408e-02    7  3  7  3
 -6.803312527628e-03    7  4  6  5
  1.204519404729e-02    7  4  7  4
 -4.192983283639e-02    7  5  6  4
  8.120066319815e-02    7  5  7  5
  7.018639424136e-03    7  6  2  1
 -8.450994545663e-03    7  6  3  2
 -6.612650954673e-03    7  6  5  4
  1.164791073323e-02    7  6  7  6
  3.460218457695e-01    7  7  1  1
  3.574926176095e-01    7  7  2  2
  2.842434714321e-04    7  7  3  1
  3.335176384545e-01    7  7  3  3
  3.368307262937e-01    7  7  4  4
  3.600471665652e-01    7  7  5  5
  3.412919824199e-01    7  7  6  6
  3.627596899137e-01    7  7  7  7
  2.821436799268e-02    8  1  4  1
  9.797035535832e-02    8  1  4  3
  9.886745727660e-02    8  1  5  2
  1.040455770719e-01    8  1  8  1
  1.089394834323e-03    8  2  4  2
  7.727999408388e-03    8  2  5  1
 -2.639777468918e-04    8  2  5  3
  1.132093659279e-02    8  2  8  2
  2.887105055975e-03    8  3  4  1
 -2.691990902405e-02    8  3  4  3
 -2.868907000895e-02    8  3  5  2
 -2.408081200638e-02    8  3  8  1
  2.130873585752e-02    8  3  8  3
  1.790757867457e-03    8  4  1  1
 -5.118982605467e-03    8  4  2  2
  1.210616167003e-02    8  4  3  1
 -5.960749286546e-03    8  4  3  3
 -9.039411326604e-04    8  4  4  4
 -5.171031972941e-03    8  4  5  5
 -1.188014821291e-02    8  4  6  6
 -1.927956763310e-03    8  4  7  7
  1.594371547374e-02    8  4  8  4
  9.961243305594e-03    8  5  2  1
 -7.206970712824e-04    8  5  3  2
  1.568335056810e-03    8  5  5  4
  7.093868448883e-03    8  5  7  6
  1.330124915271e-02    8  5  8  5
 -3.415569115234e-02    8  6  6  4
  4.794075528577e-02    8  6  7  5
  5.016412557624e-02    8  6  8  6
  5.061882104475e-03    8  7  6  5
  3.071248512799e-03    8  7  7  4
  1.200127541987e-02    8  7  8  7
  3.804651126864e-01    8  8  1  1
  3.549455484439e-01    8  8  2  2
 -2.106712640072e-03    8  8  3  1
  3.479534084886e-01    8  8  3  3
  3.504066717649e-01    8  8  4  4
  3.554486048630e-01    8  8  5  5
  3.666533516349e-01    8  8  6  6
  3.582994426343e-01    8  8  7  7
 -1.908966310526e-03    8  8  8  4
  3.974427964003e-01    8  8  8  8
  4.674502555875e-03    9  1  6  5
  2.718847407681e-03    9  1  7  4
  8.500878976585e-03    9  1  8  7
  7.803602484872e-03    9  1  9  1
 -4.132472090578e-02    9  2  6  4
  8.013878369062e-02    9  2  7  5
  4.734002052232e-02    9  2  8  6
  7.909273860237e-02    9  2  9  2
 -8.533242077966e-03    9  3  6  5
  1.230734585482e-02    9  3  7  4
  1.587013578883e-03    9  3  8  7
  9.362240447542e-04    9  3  9  1
  1.312124445272e-02    9  3  9  3
 -6.245965304087e-03    9  4  6  2
  3.684171088533e-03    9  4  7  1
  1.268441752131e-02    9  4  7  3
  1.329030378720e-02    9  4  9  4
  5.722457144213e-02    9  5  6  1
 -6.690243015508e-02    9  5  6  3
  1.033575152030e-01    9  5  7  2
  1.070059793545e-01    9  5  9  5
 -6.632932196161e-03    9  6  4  2
  5.979759150181e-03    9  6  5  1
 -8.939640172322e-03    9  6  5  3
  5.596052371199e-03    9  6  8  2
  1.136466058438e-02    9  6  9  6
  2.970781218005e-02    9  7  4  1
  1.173146305488e-01    9  7  4  3
  1.352278731365e-01    9  7  5  2
  1.027797467783e-01    9  7  8  1
 -2.703928627459e-02    9  7  8  3
  1.422689179621e-01    9  7  9  7
  6.255641321847e-03    9  8  6  2
  1.031462069461e-02    9  8  7  1
  1.759894937512e-03    9  8  7  3
  3.595598863527e-03    9  8  9  4
  1.312209679625e-02    9  8  9  8
  3.469844872028e-01    9  9  1  1
  3.598828025754e-01    9  9  2  2
  7.778804000527e-06    9  9  3  1
  3.363039350908e-01    9  9  3  3
  3.399435491184e-01    9  9  4  4
  3.634153772822e-01    9  9  5  5
  3.437225233964e-01    9  9  6  6
  3.656644132065e-01    9  9  7  7
 -2.429804251644e-03    9  9  8  4
  3.595095712340e-01    9  9  8  8
  3.693638674232e-01    9  9  9  9
 -3.485072410082e-02    10  1  6  4
  5.596788054397e-02    10  1  7  5
  5.349646004237e-02    10  1  8  6
  5.524323481803e-02    10  1  9  2
  6.337526050363e-02    10  1  10  1
  6.645130441601e-03    10  2  6  5
 -1.774093573553e-05    10  2  7  4
  1.001550916880e-02    10  2  8  7
  7.640814168873e-03    10  2  9  1
 -1.695448328614e-03    10  2  9  3
  9.207988387717e-03    10  2  10  2
  2.557501151547e-02    10  3  6  4
 -2.234929325596e-02    10  3  7  5
 -2.525251910129e-02    10  3  8  6
 -2.204799610202e-02    10  3  9  2
 -2.062276822503e-02    10  3  10  1
  2.215942312220e-02    10  3  10  3
 -7.743078933608e-03    10  4  6  1
  1.918266203061e-02    10  4  6  3
 -7.433958286139e-03    10  4  7  2
 -8.563133089042e-03    10  4  9  5
  1.512553135301e-02    10  4  10  4
  7.593887759067e-03    10  5  6  2
  9.050324230289e-03    10  5  7  1
 -1.664094769852e-03    10  5  7  3
  1.158881263289e-04    10  5  9  4
  1.094520007269e-02    10  5  9  8
  1.011381295301e-02    10  5  10  5
  1.931464794179e-02    10  6  4  1
  1.048160072697e-01    10  6  4  3
  1.011692905174e-01    10  6  5  2
  1.005176732987e-01    10  6  8  1
 -3.480532934466e-02    10  6  8  3
  1.055835509178e-01    10  6  9  7
  1.099743446660e-01    10  6  10  6
 -4.301838259348e-04    10  7  4  2
  8.152259647222e-03    10  7  5  1
 -2.220579517961e-03    10  7  5  3
  1.069460949624e-02    10  7  8  2
  7.889357248808e-03    10  7  9  6
  1.127429222251e-02    10  7  10  7
  7.890962232337e-02    10  8  6  1
 -7.457030793514e-02    10  8  6  3
  9.636723629186e-02    10  8  7  2
  9.795575768801e-02    10  8  9  5
 -7.271402484571e-03    10  8  10  4
  1.312487446738e-01    10  8  10  8
  9.830285462898e-03    10  9  2  1
 -2.570848616801e-03    10  9  3  2
 -3.498260886716e-04    10  9  5  4
  9.101266770552e-03    10  9  7  6
  1.227571626105e-02    10  9  8  5
  1.259483227084e-02    10  9  10  9
  3.783398373251e-01    10  10  1  1
  3.534239930368e-01    10  10  2  2
 -4.910204344563e-03    10  10  3  1
  3.512225619327e-01    10  10  3  3
  3.525644324006e-01    10  10  4  4
  3.548574170032e-01    10  10  5  5
  3.731829913250e-01    10  10  6  6
  3.585299925970e-01    10  10  7  7
 -4.461839350636e-03    10  10  8  4
  3.962068392859e-01    10  10  8  8
  3.604447503125e-01    10  10  9  9
  3.991924858039e-01    10  10  10  10
  3.397837571700e-02    11  1  6  1
 -3.721406733705e-02    11  1  6  3
  4.729717316529e-02    11  1  7  2
  4.952434539645e-02    11  1  9  5
 -1.347081019422e-03    11  1  10  4
  5.627438529889e-02    11  1  10  8
  4.215486222150e-02    11  1  11  1
  1.176547564517e-03    11  2  6  2
  3.071292480862e-03    11  2  7  1
  1.186727488401e-04    11  2  7  3
  1.585044070168e-03    11  2  9  4
 -1.417261567453e-03    11  2  9  8
  3.297114269514e-04    11  2  10  5
  1.325076275335e-02    11  2  11  2
  2.588144009941e-02    11  3  6  1
 -3.436956829734e-02    11  3  6  3
  4.353018870185e-02    11  3  7  2
  4.409436857097e-02    11  3  9  5
  1.549879521565e-04    11  3  10  4
  5.216688280706e-02    11  3  10  8
  2.471470465743e-02    11  3  11  1
  3.729681346333e-02    11  3  11  3
 -2.912218303563e-02    11  4  6  4
  4.096849754303e-02    11  4  7  5
  2.895858958173e-02    11  4  8  6
  4.044138453995e-02    11  4  9  2
  3.671390129382e-02    11  4  10  1
 -1.027981155727e-02    11  4  10  3
  4.093592266811e-02    11  4  11  4
  2.268664910911e-03    11  5  6  5
  1.695724367607e-03    11  5  7  4
 -9.986062053536e-04    11  5  8  7
  4.247152848405e-03    11  5  9  1
 -1.771249354151e-04    11  5  9  3
  5.814812787203e-04    11  5  10  2
  1.401659618208e-02    11  5  11  5
  4.612803997190e-04    11  6  1  1
 -6.227355999105e-03    11  6  2  2
 -3.715425555289e-03    11  6  3  1
 -1.120757911783e-02    11  6  3  3
 -1.155887019304e-02    11  6  4  4
 -4.134825566483e-03    11  6  5  5
 -3.180384260906e-03    11  6  6  6
 -6.236459243655e-03    11  6  7  7
  1.172795599951e-03    11  6  8  4
 -7.723309702042e-03    11  6  8  8
 -4.987393979861e-03    11  6  9  9
 -4.555839641876e-03    11  6  10  10
  1.843182354913e-02    11  6  11  6
  4.991824408783e-03    11  7  2  1
  1.838858538295e-03    11  7  3  2
  3.863144525720e-03    11  7  5  4
  1.741533760478e-03    11  7  7  6
 -2.188937058493e-03    11  7  8  5
 -1.210778376482e-04    11  7  10  9
  1.722212909616e-02    11  7  11  7
 -1.346920490361e-02    11  8  6  4
  1.853455103315e-02    11  8  7  5
  1.493871742425e-02    11  8  8  6
  1.820095488340e-02    11  8  9  2
  2.322623874327e-02    11  8  10  1
 -4.442772066822e-03    11  8  10  3
  1.252267907694e-02    11  8  11  4
  2.166822636675e-02    11  8  11  8
  3.973596753143e-03    11  9  4  2
  7.150805190815e-03    11  9  5  1
  1.017213836596e-03    11  9  5  3
 -1.049915472059e-03    11  9  8  2
  3.091752312145e-03    11  9  9  6
  7.940724354486e-04    11  9  10  7
  1.687631567168e-02    11  9  11  9
  1.163940140234e-02    11  10  4  1
  3.529839918724e-02    11  10  4  3
  3.402754980017e-02    11  10  5  2
  3.854249422002e-02    11  10  8  1
 -5.148922214335e-03    11  10  8  3
  3.564600593111e-02    11  10  9  7
  3.509934371128e-02    11  10  10  6
  2.844576125631e-02    11  10  11  10
  3.805747354268e-01    11  11  1  1
  3.671161926760e-01    11  11  2  2
  3.156543096438e-04    11  11  3  1
  3.593104223521e-01    11  11  3  3
  3.667084406588e-01    11  11  4  4
  3.706930750817e-01    11  11  5  5
  3.665905665395e-01    11  11  6  6
  3.672562992951e-01    11  11  7  7
 -7.070660501716e-03    11  11  8  4
  3.881666297865e-01    11  11  8  8
  3.710993248668e-01    11  11  9  9
  3.875284320766e-01    11  11  10  10
 -3.612358945186e-03    11  11  11  6
  4.249438176375e-01    11  11  11  11
 -1.641790852212e-02    12  1  6  4
  2.537466297315e-02    12  1  7  5
  1.741955109957e-02    12  1  8  6
  2.497857450348e-02    12  1  9  2
  2.407964613302e-02    12  1  10  1
 -7.221631360184e-03    12  1  10  3
  2.012549679629e-02    12  1  11  4
  1.880150406310e-02    12  1  11  8
  2.206289126302e-02    12  1  12  1
  2.903900431740e-04    12  2  6  5
  2.057032671878e-03    12  2  7  4
 -3.490915317229e-03    12  2  8  7
  2.281532534631e-03    12  2  9  1
  6.583271835990e-04    12  2  9  3
 -1.824281440791e-03    12  2  10  2
  1.370361452972e-02    12  2  11  5
  1.403492916640e-02    12  2  12  2
 -3.108597735653e-02    12  3  6  4
  3.803084201973e-02    12  3  7  5
  2.838356060825e-02    12  3  8  6
  3.755147086168e-02    12  3  9  2
  3.335302212695e-02    12  3  10  1
 -1.283188817569e-02    12  3  10  3
  3.789855384835e-02    12  3  11  4
  8.322205460645e-03    12  3  11  8
  1.532512826933e-02    12  3  12  1
  3.699887526057e-02    12  3  12  3
  3.827232801260e-02    12  4  6  1
 -5.251022939033e-02    12  4  6  3
  6.143512022769e-02    12  4  7  2
  6.332231274813e-02    12  4  9  5
 -5.432286452399e-03    12  4  10  4
  7.190576722414e-02    12  4  10  8
  3.884274180095e-02    12  4  11  1
  4.560793032036e-02    12  4  11  3
  6.071491100554e-02    12  4  12  4
 -4.240163138291e-04    12  5  6  2
  1.460627194506e-03    12  5  7  1
  6.828449187549e-04    12  5  7  3
  1.955244053535e-03    12  5  9  4
 -3.807857524127e-03    12  5  9  8
 -1.833568474362e-03    12  5  10  5
  1.403143959692e-02    12  5  11  2
  1.541760219736e-02    12  5  12  5
 -5.868075776873e-03    12  6  4  1
 -2.837393807514e-02    12  6  4  3
 -1.879104921175e-02    12  6  5  2
 -1.491362523619e-02    12  6  8  1
  5.317341732622e-03    12  6  8  3
 -2.097942811171e-02    12  6  9  7
 -1.831861432273e-02    12  6  10  6
  7.189233418087e-03    12  6  11  10
  1.896634741407e-02    12  6  12  6
  4.451562313869e-03    12  7  4  2
  5.110388869786e-03    12  7  5  1
  1.990321452557e-03    12  7  5  3
 -3.660385148281e-03    12  7  8  2
  7.979898283176e-04    12  7  9  6
 -2.050301892188e-03    12  7  10  7
  1.661758407050e-02    12  7  11  9
  1.709351177203e-02    12  7  12  7
 -1.183827908120e-04    12  8  6  1
 -2.513884717077e-03    12  8  6  3
  2.649076109713e-04    12  8  7  2
  1.244126221488e-03    12  8  9  5
  4.177752984881e-03    12  8  10  4
 -1.437470651909e-03    12  8  10  8
  1.454887655323e-02    12  8  11  1
 -2.706833173348e-03    12  8  11  3
  3.739417696776e-04    12  8  12  4
  1.780233767388e-02    12  8  12  8
  3.220033812805e-03    12  9  2  1
  2.645693457685e-03    12  9  3  2
  4.412939965231e-03    12  9  5  4
 -3.376712705788e-04    12  9  7  6
 -4.938010514182e-03    12  9  8  5
 -2.967593978229e-03    12  9  10  9
  1.812841184773e-02    12  9  11  7
  1.980048805427e-02    12  9  12  9
 -3.959511737658e-03    12  10  1  1
 -1.179438298526e-02    12  10  2  2
  2.826001029124e-03    12  10  3  1
 -9.830868393601e-03    12  10  3  3
 -7.480447087204e-03    12  10  4  4
 -9.608406923465e-03    12  10  5  5
 -1.033685799377e-02    12  10  6  6
 -1.076413366772e-02    12  10  7  7
  7.717096133083e-03    12  10  8  4
 -1.478940499034e-02    12  10  8  8
 -9.505840514128e-03    12  10  9  9
 -1.270011859384e-02    12  10  10  10
  1.679846140840e-02    12  10  11  6
 -6.296330921983e-03    12  10  11  11
  2.097928799282e-02    12  10  12  10
  3.887590091929e-02    12  11  4  1
  1.349120497074e-01    12  11  4  3
  1.375101670745e-01    12  11  5  2
  1.195532039182e-01    12  11  8  1
 -3.722752396613e-02    12  11  8  3
  1.391868780915e-01    12  11  9  7
  1.216521504627e-01    12  11  10  6
  4.132840924190e-02    12  11  11  10
 -2.526954236179e-02    12  11  12  6
  1.872629066369e-01    12  11  12  11
  3.836980009566e-01    12  12  1  1
  3.753636254493e-01    12  12  2  2
 -3.044112091699e-04    12  12  3  1
  3.668842283232e-01    12  12  3  3
  3.741597632242e-01    12  12  4  4
  3.784378113223e-01    12  12  5  5
  3.727830499770e-01    12  12  6  6
  3.749199787367e-01    12  12  7  7
 -1.101799964274e-02    12  12  8  4
  3.961316741995e-01    12  12  8  8
  3.786066874148e-01    12  12  9  9
  3.945249251232e-01    12  12  10  10
 -1.159820463662e-02    12  12  11  6
  4.338510519848e-01    12  12  11  11
 -1.565702658250e-02    12  12  12  10
  4.476602849205e-01    12  12  12  12
 -2.752769183227e+00    1  1  0  0
 -2.607501612580e+00    2  2  0  0
  1.121936510783e-02    3  1  0  0
 -2.575486864441e+00    3  3  0  0
 -2.531285239384e+00    4  4  0  0
 -2.523473953871e+00    5  5  0  0
 -2.446430869711e+00    6  6  0  0
 -2.376757016307e+00    7  7  0  0
  3.984554983833e-04    8  4  0  0
 -2.473669923530e+00    8  8  0  0
 -2.311518361829e+00    9  9  0  0
 -2.266262361972e+00    10  10  0  0
  1.283251760663e-02    11  6  0  0
 -2.149665098797e+00    11  11  0  0
  7.344857019892e-02    12  10  0  0
 -2.123778970657e+00    12  12  0  0
   -137.204665126043   0  0  0  0
