 &FCI NORB=12 ,NELEC=8 ,MS2=2,
  ORBSYM=1,2,1,5,6,3,4,5,8,7,3,7,
  ISYM=1,
 &END
  3.757730619721e-01    1  1  1  1
  1.115920206674e-02    2  1  2  1
  3.443452179156e-01    2  2  1  1
  3.571294363160e-01    2  2  2  2
 -2.618454403698e-04    3  1  1  1
 -9.191392036019e-04    3  1  2  2
  1.138407545997e-02    3  1  3  1
 -1.251080110246e-05    3  2  2  1
  1.106813763124e-02    3  2  3  2
  3.438288179523e-01    3  3  1  1
  3.381782696892e-01    3  3  2  2
 -5.195746391228e-04    3  3  3  1
  3.625171845123e-01    3  3  3  3
  4.102621945799e-02    4  1  4  1
  1.082163665575e-02    4  2  4  2
  5.567258228868e-02    4  3  4  1
  1.116227697665e-01    4  3  4  3
  3.454799584896e-01    4  4  1  1
  3.328203900970e-01    4  4  2  2
  1.077823712463e-02    4  4  3  1
  3.529436050961e-01    4  4  3  3
  3.601727955779e-01    4  4  4  4
  5.044964588351e-03    5  1  4  2
  1.045152327507e-02    5  1  5  1
  5.650557672010e-02    5  2  4  1
  1.008675116147e-01    5  2  4  3
  1.323242697504e-01    5  2  5  2
  9.434141999332e-03    5  3  4  2
  6.027798307840e-04    5  3  5  1
  1.035481576469e-02    5  3  5  3
  5.582459331456e-03    5  4  2  1
  9.650610497931e-03    5  4  3  2
  1.214721859678e-02    5  4  5  4
  3.457580927361e-01    5  5  1  1
  3.587925122282e-01    5  5  2  2
 -4.121570757896e-04    5  5  3  1
  3.394473700357e-01    5  5  3  3
  3.356475014916e-01    5  5  4  4
  3.618315917712e-01    5  5  5  5
  4.647692756052e-02    6  1  6  1
  9.344101934076e-03    6  2  6  2
 -4.613473539738e-02    6  3  6  1
  7.267465699078e-02    6  3  6  3
  2.945314167357e-02    6  4  6  4
  8.976466344504e-03    6  5  6  5
  3.541964681588e-01    6  6  1  1
  3.386838672668e-01    6  6  2  2
 -1.007089372156e-02    6  6  3  1
  3.547812328749e-01    6  6  3  3
  3.429743815772e-01    6  6  4  4
  3.404487437991e-01    6  6  5  5
  3.674190004447e-01    6  6  6  6
  5.522390652334e-03    7  1  6  2
  9.681110023360e-03    7  1  7  1
  5.257152855122e-02    7  2  6  1
 -6.792664035742e-02    7  2  6  3
  1.004724940779e-01    7  2  7  2
 -7.645994010305e-03    7  3  6  2
  6.105963797966e-04    7  3  7  1
  1.036139075929e-02    7  3  7  3
 -5.260560983406e-03    7  4  6  5
  1.223333931126e-02    7  4  7  4
 -3.089503684280e-02    7  5  6  4
  8.120066319815e-02    7  5  7  5
  6.594903977457e-03    7  6  2  1
 -8.580024096405e-03    7  6  3  2
 -4.737062803549e-03    7  6  5  4
  1.154657257312e-02    7  6  7  6
  3.454926175758e-01    7  7  1  1
  3.574926176095e-01    7  7  2  2
  2.606846551016e-04    7  7  3  1
  3.400432391902e-01    7  7  3  3
  3.379718245080e-01    7  7  4  4
  3.600471665652e-01    7  7  5  5
  3.427583421786e-01    7  7  6  6
  3.627596899137e-01    7  7  7  7
  4.800024231424e-02    8  1  4  1
  7.635777925558e-02    8  1  4  3
  8.707860854879e-02    8  1  5  2
  8.375759666679e-02    8  1  8  1
  9.284414037099e-04    8  2  4  2
  6.473048746993e-03    8  2  5  1
 -3.518340031987e-03    8  2  5  3
  1.102474716556e-02    8  2  8  2
 -2.045075595652e-02    8  3  4  1
 -5.237612616659e-02    8  3  4  3
 -5.633142974152e-02    8  3  5  2
 -4.413480078340e-02    8  3  8  1
  4.139485056946e-02    8  3  8  3
  7.173296689902e-03    8  4  1  1
 -2.810423510652e-03    8  4  2  2
  6.543983499049e-03    8  4  3  1
 -1.121356788341e-02    8  4  3  3
  1.005709053527e-03    8  4  4  4
 -3.036008042266e-03    8  4  5  5
 -8.300375885622e-03    8  4  6  6
  7.621933078036e-05    8  4  7  7
  1.537121836326e-02    8  4  8  4
  8.201267470280e-03    8  5  2  1
 -4.870463968842e-03    8  5  3  2
  1.392681857509e-03    8  5  5  4
  8.382665327586e-03    8  5  7  6
  1.286962424673e-02    8  5  8  5
 -2.899473507060e-02    8  6  6  4
  5.468568293272e-02    8  6  7  5
  6.192267444006e-02    8  6  8  6
  6.239593886241e-03    8  7  6  5
  2.771594325261e-03    8  7  7  4
  1.123749683125e-02    8  7  8  7
  3.763651178494e-01    8  8  1  1
  3.557582088488e-01    8  8  2  2
 -6.630884025419e-03    8  8  3  1
  3.612056899399e-01    8  8  3  3
  3.518655724619e-01    8  8  4  4
  3.563239115479e-01    8  8  5  5
  3.721803219651e-01    8  8  6  6
  3.583637975519e-01    8  8  7  7
 -7.794018847939e-04    8  8  8  4
  3.976966984372e-01    8  8  8  8
  4.299667674917e-03    9  1  6  5
  4.635689417284e-03    9  1  7  4
  7.460027364431e-03    9  1  8  7
  7.785437695658e-03    9  1  9  1
 -3.043939160272e-02    9  2  6  4
  8.013878369062e-02    9  2  7  5
  5.398970582479e-02    9  2  8  6
  7.909273860237e-02    9  2  9  2
 -8.017684824110e-03    9  3  6  5
  1.037867825090e-02    9  3  7  4
 -1.975188852357e-03    9  3  8  7
  6.934112971973e-04    9  3  9  1
  1.075574642764e-02    9  3  9  3
 -4.547319211064e-03    9  4  6  2
  5.698968075762e-03    9  4  7  1
  1.045321788308e-02    9  4  7  3
  1.352063481221e-02    9  4  9  4
  5.294293743415e-02    9  5  6  1
 -7.017582889984e-02    9  5  6  3
  1.033575152030e-01    9  5  7  2
  1.070059793545e-01    9  5  9  5
 -4.955082993213e-03    9  6  4  2
  5.684464066631e-03    9  6  5  1
 -8.338098076621e-03    9  6  5  3
  6.761290361909e-03    9  6  8  2
  1.102001348406e-02    9  6  9  6
  5.833963562727e-02    9  7  4  1
  1.057580852783e-01    9  7  4  3
  1.352278731365e-01    9  7  5  2
  9.073960810244e-02    9  7  8  1
 -5.618777294246e-02    9  7  8  3
  1.422689179621e-01    9  7  9  7
  7.435681619492e-03    9  8  6  2
  9.002123350635e-03    9  8  7  1
 -2.302263802604e-03    9  8  7  3
  3.239273722837e-03    9  8  9  4
  1.223065006220e-02    9  8  9  8
  3.469154336535e-01    9  9  1  1
  3.598828025754e-01    9  9  2  2
  4.902496495022e-04    9  9  3  1
  3.423684697969e-01    9  9  3  3
  3.409293834330e-01    9  9  4  4
  3.634153772822e-01    9  9  5  5
  3.449742435100e-01    9  9  6  6
  3.656644132065e-01    9  9  7  7
 -5.648310651941e-04    9  9  8  4
  3.597325281744e-01    9  9  8  8
  3.693638674232e-01    9  9  9  9
 -2.100449209400e-02    10  1  6  4
  5.168759891605e-02    10  1  7  5
  5.475920291205e-02    10  1  8  6
  5.101101985909e-02    10  1  9  2
  5.524250393291e-02    10  1  10  1
  7.048302783057e-03    10  2  6  5
  9.049286803597e-04    10  2  7  4
  9.803271567443e-03    10  2  8  7
  6.996714278123e-03    10  2  9  1
 -3.395577834264e-03    10  2  9  3
  9.091104547992e-03    10  2  10  2
  2.378982201894e-02    10  3  6  4
 -3.142848205583e-02    10  3  7  5
 -3.759724300798e-02    10  3  8  6
 -3.102065892099e-02    10  3  9  2
 -2.751174211329e-02    10  3  10  1
  2.856068746981e-02    10  3  10  3
  3.214786073933e-03    10  4  6  1
  9.394163078024e-03    10  4  6  3
  3.316684285156e-03    10  4  7  2
  2.417906473861e-03    10  4  9  5
  1.439110799714e-02    10  4  10  4
  8.033889384429e-03    10  5  6  2
  8.254794338978e-03    10  5  7  1
 -3.720990987671e-03    10  5  7  3
  1.108992349604e-03    10  5  9  4
  1.069144829493e-02    10  5  9  8
  9.985551676879e-03    10  5  10  5
  4.847441015001e-02    10  6  4  1
  9.732878109300e-02    10  6  4  3
  1.047971289686e-01    10  6  5  2
  9.309892209706e-02    10  6  8  1
 -6.270123232616e-02    10  6  8  3
  1.094865116259e-01    10  6  9  7
  1.172247449047e-01    10  6  10  6
  6.193995199952e-04    10  7  4  2
  7.490744417289e-03    10  7  5  1
 -4.000552030254e-03    10  7  5  3
  1.051881738150e-02    10  7  8  2
  8.417861158837e-03    10  7  9  6
  1.112411383138e-02    10  7  10  7
  7.365409022423e-02    10  8  6  1
 -8.374752277552e-02    10  8  6  3
  9.613308940522e-02    10  8  7  2
  9.787971492625e-02    10  8  9  5
  5.449885138060e-03    10  8  10  4
  1.301379243135e-01    10  8  10  8
  8.778588859559e-03    10  9  2  1
 -4.977054155231e-03    10  9  3  2
  7.997208935919e-04    10  9  5  4
  9.698723631429e-03    10  9  7  6
  1.202728801252e-02    10  9  8  5
  1.238187640864e-02    10  9  10  9
  3.746468696644e-01    10  10  1  1
  3.527723215752e-01    10  10  2  2
 -7.242340022687e-03    10  10  3  1
  3.602858559338e-01    10  10  3  3
  3.530437937412e-01    10  10  4  4
  3.543429866242e-01    10  10  5  5
  3.757381760830e-01    10  10  6  6
  3.578375655027e-01    10  10  7  7
 -1.174800505534e-04    10  10  8  4
  3.955280458289e-01    10  10  8  8
  3.598548160166e-01    10  10  9  9
  3.975715494872e-01    10  10  10  10
  3.525352145411e-02    11  1  6  1
 -4.220999551477e-02    11  1  6  3
  5.276759083443e-02    11  1  7  2
  5.516427433232e-02    11  1  9  5
  5.323392975351e-03    11  1  10  4
  6.166595356254e-02    11  1  10  8
  4.867198742953e-02    11  1  11  1
  9.134592091538e-04    11  2  6  2
  3.738642742209e-03    11  2  7  1
  1.599308303998e-03    11  2  7  3
  2.011406710819e-03    11  2  9  4
 -1.957048773071e-03    11  2  9  8
  1.737959673461e-04    11  2  10  5
  1.323172927138e-02    11  2  11  2
  2.403063491375e-02    11  3  6  1
 -3.732014878082e-02    11  3  6  3
  4.417871608714e-02    11  3  7  2
  4.473933071978e-02    11  3  9  5
  3.694569732471e-03    11  3  10  4
  5.192732722228e-02    11  3  10  8
  2.784360940300e-02    11  3  11  1
  3.736030096955e-02    11  3  11  3
 -2.418029917495e-02    11  4  6  4
  4.552093345858e-02    11  4  7  5
  3.811472774790e-02    11  4  8  6
  4.492216043756e-02    11  4  9  2
  3.837019274974e-02    11  4  10  1
 -1.946968920399e-02    11  4  10  3
  4.735768053673e-02    11  4  11  4
  2.084693230601e-03    11  5  6  5
  2.198801295429e-03    11  5  7  4
 -1.492639800162e-03    11  5  8  7
  4.928691927706e-03    11  5  9  1
  1.153366953687e-03    11  5  9  3
  4.667709601392e-04    11  5  10  2
  1.388831839476e-02    11  5  11  5
  2.491101977981e-03    11  6  1  1
 -6.089714307763e-03    11  6  2  2
 -3.095510847577e-03    11  6  3  1
 -1.397380769526e-02    11  6  3  3
 -1.029270019298e-02    11  6  4  4
 -3.908123468624e-03    11  6  5  5
 -3.693145262541e-03    11  6  6  6
 -6.021585002408e-03    11  6  7  7
  3.110799539093e-03    11  6  8  4
 -8.270896406136e-03    11  6  8  8
 -4.717967037776e-03    11  6  9  9
 -4.210632627285e-03    11  6  10  10
  1.842212213282e-02    11  6  11  6
  6.528403797641e-03    11  7  2  1
  4.233670625315e-03    11  7  3  2
  4.492328020733e-03    11  7  5  4
  1.336047224751e-03    11  7  7  6
 -3.034992840518e-03    11  7  8  5
 -2.639822419835e-04    11  7  10  9
  1.719706108403e-02    11  7  11  7
 -5.158213084271e-03    11  8  6  4
  1.085662875112e-02    11  8  7  5
  1.042163501490e-02    11  8  8  6
  1.062184557801e-02    11  8  9  2
  1.616673216296e-02    11  8  10  1
 -3.133729143109e-03    11  8  10  3
  8.494329905713e-03    11  8  11  4
  1.788638201632e-02    11  8  11  8
  4.661545964906e-03    11  9  4  2
  8.391277634213e-03    11  9  5  1
  2.741328490461e-03    11  9  5  3
 -1.833942636878e-03    11  9  8  2
  2.829677087699e-03    11  9  9  6
  6.746423014023e-04    11  9  10  7
  1.669585640729e-02    11  9  11  9
  1.915642371394e-02    11  10  4  1
  2.663532599545e-02    11  10  4  3
  3.011417990362e-02    11  10  5  2
  3.248682946645e-02    11  10  8  1
 -1.055345310065e-02    11  10  8  3
  3.144324906746e-02    11  10  9  7
  3.231956430487e-02    11  10  10  6
  2.581340543104e-02    11  10  11  10
  3.832778616898e-01    11  11  1  1
  3.678939794574e-01    11  11  2  2
  3.406467269910e-03    11  11  3  1
  3.713435760672e-01    11  11  3  3
  3.693092386047e-01    11  11  4  4
  3.712722449997e-01    11  11  5  5
  3.688724119982e-01    11  11  6  6
  3.679863976925e-01    11  11  7  7
 -5.031829652973e-03    11  11  8  4
  3.904374876895e-01    11  11  8  8
  3.717153894290e-01    11  11  9  9
  3.876265121822e-01    11  11  10  10
 -4.141864196681e-03    11  11  11  6
  4.261659949260e-01    11  11  11  11
 -1.527924208201e-02    12  1  6  4
  3.251576559334e-02    12  1  7  5
  2.656450981703e-02    12  1  8  6
  3.203563856447e-02    12  1  9  2
  2.891118578071e-02    12  1  10  1
 -1.375441693953e-02    12  1  10  3
  3.016327280226e-02    12  1  11  4
  1.521444284296e-02    12  1  11  8
  2.868445816759e-02    12  1  12  1
  4.134835263134e-04    12  2  6  5
  2.054226710593e-03    12  2  7  4
 -3.732983946138e-03    12  2  8  7
  3.315761662965e-03    12  2  9  1
  1.997379024449e-03    12  2  9  3
 -1.632104922143e-03    12  2  10  2
  1.371893853426e-02    12  2  11  5
  1.403702427660e-02    12  2  12  2
 -2.325010950727e-02    12  3  6  4
  3.856970073819e-02    12  3  7  5
  3.415650841133e-02    12  3  8  6
  3.810197521881e-02    12  3  9  2
  3.002184030869e-02    12  3  10  1
 -2.009403517565e-02    12  3  10  3
  3.971985975009e-02    12  3  11  4
 -2.282201708606e-04    12  3  11  8
  2.022506524320e-02    12  3  12  1
  3.754849587279e-02    12  3  12  3
  3.573174983773e-02    12  4  6  1
 -5.485769384683e-02    12  4  6  3
  6.249346795182e-02    12  4  7  2
  6.455280387288e-02    12  4  9  5
  2.812218738757e-03    12  4  10  4
  7.258895116625e-02    12  4  10  8
  4.713236875612e-02    12  4  11  1
  4.529498392434e-02    12  4  11  3
  6.239750072855e-02    12  4  12  4
 -3.464324300005e-04    12  5  6  2
  2.589511393681e-03    12  5  7  1
  2.278016964320e-03    12  5  7  3
  1.961940823382e-03    12  5  9  4
 -4.036084203882e-03    12  5  9  8
 -1.616014261114e-03    12  5  10  5
  1.408730429950e-02    12  5  11  2
  1.541758917312e-02    12  5  12  5
 -7.952238865675e-03    12  6  4  1
 -2.126180748206e-02    12  6  4  3
 -1.388918344988e-02    12  6  5  2
 -7.426941075452e-03    12  6  8  1
  1.069695079297e-02    12  6  8  3
 -1.586145886394e-02    12  6  9  7
 -1.419139250527e-02    12  6  10  6
  9.763087771624e-03    12  6  11  10
  1.720534602644e-02    12  6  12  6
  4.625119905835e-03    12  7  4  2
  6.773380533995e-03    12  7  5  1
  3.722838229670e-03    12  7  5  3
 -4.182698431415e-03    12  7  8  2
  9.143429619513e-04    12  7  9  6
 -1.801712299739e-03    12  7  10  7
  1.661779167875e-02    12  7  11  9
  1.709292894175e-02    12  7  12  7
 -3.280466445925e-03    12  8  6  1
  6.880560136261e-03    12  8  6  3
 -7.588251819881e-03    12  8  7  2
 -6.851969145320e-03    12  8  9  5
  3.860806087202e-03    12  8  10  4
 -1.092788234931e-02    12  8  10  8
  7.832758550363e-03    12  8  11  1
 -1.102533350257e-02    12  8  11  3
 -5.394287309237e-03    12  8  12  4
  1.840531984208e-02    12  8  12  8
  5.343038526194e-03    12  9  2  1
  5.214777906827e-03    12  9  3  2
  4.579191608166e-03    12  9  5  4
 -3.443990045226e-04    12  9  7  6
 -5.443009863823e-03    12  9  8  5
 -2.650194665420e-03    12  9  10  9
  1.820429307073e-02    12  9  11  7
  1.980340642734e-02    12  9  12  9
 -6.577577558468e-04    12  10  1  1
 -1.125319942021e-02    12  10  2  2
  2.091250104131e-03    12  10  3  1
 -1.537766788364e-02    12  10  3  3
 -6.119978158963e-03    12  10  4  4
 -9.059544173544e-03    12  10  5  5
 -1.022803528330e-02    12  10  6  6
 -1.033503024106e-02    12  10  7  7
  7.130919142866e-03    12  10  8  4
 -1.602743236858e-02    12  10  8  8
 -9.062999696608e-03    12  10  9  9
 -1.169220153261e-02    12  10  10  10
  1.742982984856e-02    12  10  11  6
 -7.198150898574e-03    12  10  11  11
  2.078300507419e-02    12  10  12  10
  7.457008103589e-02    12  11  4  1
  1.247699606340e-01    12  11  4  3
  1.381866635750e-01    12  11  5  2
  1.047152917300e-01    12  11  8  1
 -7.114473811108e-02    12  11  8  3
  1.399426014008e-01    12  11  9  7
  1.265638315952e-01    12  11  10  6
  3.622174145208e-02    12  11  11  10
 -1.940772012241e-02    12  11  12  6
  1.891652709742e-01    12  11  12  11
  3.858302910250e-01    12  12  1  1
  3.754432619767e-01    12  12  2  2
  3.459607048106e-03    12  12  3  1
  3.802127102561e-01    12  12  3  3
  3.752254732102e-01    12  12  4  4
  3.784954636125e-01    12  12  5  5
  3.745626662574e-01    12  12  6  6
  3.749978678817e-01    12  12  7  7
 -8.792991901495e-03    12  12  8  4
  3.984988619319e-01    12  12  8  8
  3.786714149432e-01    12  12  9  9
  3.939201532616e-01    12  12  10  10
 -1.069733531722e-02    12  12  11  6
  4.352024063602e-01    12  12  11  11
 -1.501184325158e-02    12  12  12  10
  4.478661399502e-01    12  12  12  12
 -2.770887983182e+00    1  1  0  0
 -2.632591550381e+00    2  2  0  0
  1.475458647834e-02    3  1  0  0
 -2.666284686719e+00    3  3  0  0
 -2.557242010071e+00    4  4  0  0
 -2.547819613886e+00    5  5  0  0
 -2.475594730525e+00    6  6  0  0
 -2.397867905596e+00    7  7  0  0
  1.508810919535e-02    8  4  0  0
 -2.500668940364e+00    8  8  0  0
 -2.332391984846e+00    9  9  0  0
 -2.283474884300e+00    10  10  0  0
  3.625106145332e-02    11  6  0  0
 -2.181295816640e+00    11  11  0  0
  7.758780446859e-02    12  10  0  0
 -2.156777155576e+00    12  12  0  0
   -137.008151643775   0  0  0  0
