 &FCI NORB=19 ,NELEC=14 ,MS2=0,
  ORBSYM=1,1,1,1,1,1,1,1,1,1,1,1,1,1,1,1,1,1,1,
  ISYM=1,
 &END
  2.048257659801e-02    2  1  2  1
  2.560322074751e-03    2  2  2  2
  2.048257659801e-02    3  1  3  1
  1.024128829900e-02    3  2  3  2
  2.560322074751e-03    3  3  3  3
  2.048257659801e-02    4  1  4  1
  1.024128829900e-02    4  2  4  2
  1.024128829900e-02    4  3  4  3
  2.560322074751e-03    4  4  4  4
  2.048257659801e-02    5  1  5  1
  1.024128829900e-02    5  2  5  2
  1.024128829900e-02    5  3  5  3
  2.560322074751e-03    5  4  5  4
 -2.560322074751e-03    5  5  4  4
  2.560322074751e-03    5  5  5  5
  2.048257659801e-02    6  1  6  1
  1.024128829900e-02    6  2  6  2
  2.560322074751e-03    6  3  6  3
  1.024128829900e-02    6  4  6  4
  1.024128829900e-02    6  5  6  5
 -2.560322074751e-03    6  6  3  3
  2.560322074751e-03    6  6  6  6
  2.048257659801e-02    7  1  7  1
  2.560322074751e-03    7  2  7  2
  1.024128829900e-02    7  3  7  3
  1.024128829900e-02    7  4  7  4
  1.024128829900e-02    7  5  7  5
  1.024128829900e-02    7  6  7  6
 -2.560322074751e-03    7  7  2  2
  2.560322074751e-03    7  7  7  7
  7.241684404312e-03    8  1  3  2
 -7.241684404312e-03    8  1  7  6
  1.024128829900e-02    8  1  8  1
  1.448336880862e-02    8  2  3  1
  1.228954595880e-02    8  2  8  2
  1.448336880862e-02    8  3  2  1
  1.228954595880e-02    8  3  8  3
  6.827525532669e-03    8  4  8  4
  6.827525532669e-03    8  5  8  5
 -1.448336880862e-02    8  6  7  1
  1.228954595880e-02    8  6  8  6
 -1.448336880862e-02    8  7  6  1
  1.228954595880e-02    8  7  8  7
  1.280161037375e-03    8  8  8  8
  7.241684404312e-03    9  1  4  2
 -7.241684404312e-03    9  1  7  5
  1.024128829900e-02    9  1  9  1
  1.448336880862e-02    9  2  4  1
  1.228954595880e-02    9  2  9  2
  3.413762766334e-03    9  3  8  4
  6.827525532669e-03    9  3  9  3
  1.448336880862e-02    9  4  2  1
  1.024128829900e-02    9  4  8  3
  1.228954595880e-02    9  4  9  4
 -1.448336880862e-02    9  5  7  1
  1.024128829900e-02    9  5  8  6
  1.228954595880e-02    9  5  9  5
  3.413762766334e-03    9  6  8  5
  6.827525532669e-03    9  6  9  6
 -1.448336880862e-02    9  7  5  1
  1.228954595880e-02    9  7  9  7
  5.120644149502e-03    9  8  4  3
  5.120644149502e-03    9  8  6  5
  6.827525532669e-03    9  8  9  8
  1.280161037375e-03    9  9  9  9
  7.241684404312e-03    10  1  4  2
  7.241684404312e-03    10  1  7  5
  1.024128829900e-02    10  1  10  1
  1.448336880862e-02    10  2  4  1
  1.024128829900e-02    10  2  9  2
  1.228954595880e-02    10  2  10  2
  3.413762766334e-03    10  3  8  4
  6.827525532669e-03    10  3  10  3
  1.448336880862e-02    10  4  2  1
  1.024128829900e-02    10  4  8  3
  1.024128829900e-02    10  4  9  4
  1.228954595880e-02    10  4  10  4
  1.448336880862e-02    10  5  7  1
 -1.024128829900e-02    10  5  8  6
 -1.024128829900e-02    10  5  9  5
  1.228954595880e-02    10  5  10  5
 -3.413762766334e-03    10  6  8  5
  6.827525532669e-03    10  6  10  6
  1.448336880862e-02    10  7  5  1
 -1.024128829900e-02    10  7  9  7
  1.228954595880e-02    10  7  10  7
  5.120644149502e-03    10  8  4  3
 -5.120644149502e-03    10  8  6  5
  6.827525532669e-03    10  8  10  8
  2.560322074751e-03    10  9  2  2
  2.560322074751e-03    10  9  4  4
 -2.560322074751e-03    10  9  5  5
 -2.560322074751e-03    10  9  7  7
  5.120644149502e-03    10  9  10  9
  1.280161037375e-03    10  10  10  10
  7.241684404312e-03    11  1  3  2
  7.241684404312e-03    11  1  7  6
  1.024128829900e-02    11  1  11  1
  1.448336880862e-02    11  2  3  1
  1.024128829900e-02    11  2  8  2
  1.228954595880e-02    11  2  11  2
  1.448336880862e-02    11  3  2  1
  1.024128829900e-02    11  3  8  3
  1.024128829900e-02    11  3  9  4
  1.024128829900e-02    11  3  10  4
  1.228954595880e-02    11  3  11  3
  3.413762766334e-03    11  4  9  3
  3.413762766334e-03    11  4  10  3
  6.827525532669e-03    11  4  11  4
 -3.413762766334e-03    11  5  9  6
  3.413762766334e-03    11  5  10  6
  6.827525532669e-03    11  5  11  5
  1.448336880862e-02    11  6  7  1
 -1.024128829900e-02    11  6  8  6
 -1.024128829900e-02    11  6  9  5
  1.024128829900e-02    11  6  10  5
  1.228954595880e-02    11  6  11  6
  1.448336880862e-02    11  7  6  1
 -1.024128829900e-02    11  7  8  7
  1.228954595880e-02    11  7  11  7
  2.560322074751e-03    11  8  2  2
  2.560322074751e-03    11  8  3  3
 -2.560322074751e-03    11  8  6  6
 -2.560322074751e-03    11  8  7  7
  2.560322074751e-03    11  8  10  9
  5.120644149502e-03    11  8  11  8
  5.120644149502e-03    11  9  4  3
 -5.120644149502e-03    11  9  6  5
  5.120644149502e-03    11  9  10  8
  6.827525532669e-03    11  9  11  9
  5.120644149502e-03    11  10  4  3
  5.120644149502e-03    11  10  6  5
  5.120644149502e-03    11  10  9  8
  6.827525532669e-03    11  10  11  10
  1.280161037375e-03    11  11  11  11
 -7.241684404312e-03    12  1  6  2
  7.241684404312e-03    12  1  7  3
  1.024128829900e-02    12  1  12  1
 -1.448336880862e-02    12  2  6  1
  1.024128829900e-02    12  2  8  7
 -8.193030639203e-03    12  2  11  7
  1.228954595880e-02    12  2  12  2
  1.448336880862e-02    12  3  7  1
 -1.024128829900e-02    12  3  8  6
 -1.024128829900e-02    12  3  9  5
  1.024128829900e-02    12  3  10  5
  8.193030639203e-03    12  3  11  6
  1.228954595880e-02    12  3  12  3
 -3.413762766334e-03    12  4  9  6
 -3.413762766334e-03    12  4  10  6
  6.827525532669e-03    12  4  12  4
 -3.413762766334e-03    12  5  9  3
  3.413762766334e-03    12  5  10  3
  6.827525532669e-03    12  5  12  5
 -1.448336880862e-02    12  6  2  1
 -1.024128829900e-02    12  6  8  3
 -1.024128829900e-02    12  6  9  4
 -1.024128829900e-02    12  6  10  4
 -8.193030639203e-03    12  6  11  3
  1.228954595880e-02    12  6  12  6
  1.448336880862e-02    12  7  3  1
  1.024128829900e-02    12  7  8  2
  8.193030639203e-03    12  7  11  2
  1.228954595880e-02    12  7  12  7
 -2.560322074751e-03    12  8  6  3
  2.560322074751e-03    12  8  7  2
  5.120644149502e-03    12  8  12  8
 -5.120644149502e-03    12  9  5  3
 -5.120644149502e-03    12  9  6  4
  6.827525532669e-03    12  9  12  9
  5.120644149502e-03    12  10  5  3
 -5.120644149502e-03    12  10  6  4
  6.827525532669e-03    12  10  12  10
  1.280161037375e-03    12  11  12  11
 -1.280161037375e-03    12  12  11  11
  1.280161037375e-03    12  12  12  12
 -7.241684404312e-03    13  1  5  2
  7.241684404312e-03    13  1  7  4
  1.024128829900e-02    13  1  13  1
 -1.448336880862e-02    13  2  5  1
  1.024128829900e-02    13  2  9  7
 -8.193030639203e-03    13  2  10  7
  1.228954595880e-02    13  2  13  2
 -3.413762766334e-03    13  3  8  5
 -3.413762766334e-03    13  3  11  5
  3.413762766334e-03    13  3  12  4
  6.827525532669e-03    13  3  13  3
  1.448336880862e-02    13  4  7  1
 -1.024128829900e-02    13  4  8  6
 -1.024128829900e-02    13  4  9  5
  8.193030639203e-03    13  4  10  5
  1.024128829900e-02    13  4  11  6
  1.024128829900e-02    13  4  12  3
  1.228954595880e-02    13  4  13  4
 -1.448336880862e-02    13  5  2  1
 -1.024128829900e-02    13  5  8  3
 -1.024128829900e-02    13  5  9  4
 -8.193030639203e-03    13  5  10  4
 -1.024128829900e-02    13  5  11  3
  1.024128829900e-02    13  5  12  6
  1.228954595880e-02    13  5  13  5
 -3.413762766334e-03    13  6  8  4
  3.413762766334e-03    13  6  11  4
  3.413762766334e-03    13  6  12  5
  6.827525532669e-03    13  6  13  6
  1.448336880862e-02    13  7  4  1
  1.024128829900e-02    13  7  9  2
  8.193030639203e-03    13  7  10  2
  1.228954595880e-02    13  7  13  7
 -5.120644149502e-03    13  8  5  3
 -5.120644149502e-03    13  8  6  4
  5.120644149502e-03    13  8  12  9
  6.827525532669e-03    13  8  13  8
 -2.560322074751e-03    13  9  5  4
  2.560322074751e-03    13  9  7  2
  2.560322074751e-03    13  9  12  8
  5.120644149502e-03    13  9  13  9
  1.280161037375e-03    13  10  13  10
 -5.120644149502e-03    13  11  5  3
  5.120644149502e-03    13  11  6  4
 -3.413762766334e-03    13  11  12  10
  6.827525532669e-03    13  11  13  11
  5.120644149502e-03    13  12  4  3
  5.120644149502e-03    13  12  6  5
  5.120644149502e-03    13  12  9  8
  3.413762766334e-03    13  12  11  10
  6.827525532669e-03    13  12  13  12
 -1.280161037375e-03    13  13  10  10
  1.280161037375e-03    13  13  13  13
  7.241684404312e-03    14  1  5  2
  7.241684404312e-03    14  1  7  4
  1.024128829900e-02    14  1  14  1
  1.448336880862e-02    14  2  5  1
 -8.193030639203e-03    14  2  9  7
  1.024128829900e-02    14  2  10  7
 -1.024128829900e-02    14  2  13  2
  1.228954595880e-02    14  2  14  2
  3.413762766334e-03    14  3  8  5
  3.413762766334e-03    14  3  11  5
  3.413762766334e-03    14  3  12  4
  6.827525532669e-03    14  3  14  3
  1.448336880862e-02    14  4  7  1
 -1.024128829900e-02    14  4  8  6
 -8.193030639203e-03    14  4  9  5
  1.024128829900e-02    14  4  10  5
  1.024128829900e-02    14  4  11  6
  1.024128829900e-02    14  4  12  3
  1.024128829900e-02    14  4  13  4
  1.228954595880e-02    14  4  14  4
  1.448336880862e-02    14  5  2  1
  1.024128829900e-02    14  5  8  3
  8.193030639203e-03    14  5  9  4
  1.024128829900e-02    14  5  10  4
  1.024128829900e-02    14  5  11  3
 -1.024128829900e-02    14  5  12  6
 -1.024128829900e-02    14  5  13  5
  1.228954595880e-02    14  5  14  5
 -3.413762766334e-03    14  6  8  4
  3.413762766334e-03    14  6  11  4
 -3.413762766334e-03    14  6  12  5
  6.827525532669e-03    14  6  14  6
  1.448336880862e-02    14  7  4  1
  8.193030639203e-03    14  7  9  2
  1.024128829900e-02    14  7  10  2
  1.024128829900e-02    14  7  13  7
  1.228954595880e-02    14  7  14  7
  5.120644149502e-03    14  8  5  3
 -5.120644149502e-03    14  8  6  4
  5.120644149502e-03    14  8  12  10
 -5.120644149502e-03    14  8  13  11
  6.827525532669e-03    14  8  14  8
  1.280161037375e-03    14  9  14  9
  2.560322074751e-03    14  10  5  4
  2.560322074751e-03    14  10  7  2
  2.560322074751e-03    14  10  12  8
  5.120644149502e-03    14  10  14  10
  5.120644149502e-03    14  11  5  3
  5.120644149502e-03    14  11  6  4
 -3.413762766334e-03    14  11  12  9
 -5.120644149502e-03    14  11  13  8
  6.827525532669e-03    14  11  14  11
  5.120644149502e-03    14  12  4  3
 -5.120644149502e-03    14  12  6  5
  5.120644149502e-03    14  12  10  8
  3.413762766334e-03    14  12  11  9
  6.827525532669e-03    14  12  14  12
 -2.560322074751e-03    14  13  2  2
  2.560322074751e-03    14  13  4  4
 -2.560322074751e-03    14  13  5  5
  2.560322074751e-03    14  13  7  7
 -2.560322074751e-03    14  13  11  8
  5.120644149502e-03    14  13  14  13
 -1.280161037375e-03    14  14  9  9
  1.280161037375e-03    14  14  14  14
  7.241684404312e-03    15  1  6  2
  7.241684404312e-03    15  1  7  3
  1.024128829900e-02    15  1  15  1
  1.448336880862e-02    15  2  6  1
 -8.193030639203e-03    15  2  8  7
  1.024128829900e-02    15  2  11  7
 -1.024128829900e-02    15  2  12  2
  1.228954595880e-02    15  2  15  2
  1.448336880862e-02    15  3  7  1
 -8.193030639203e-03    15  3  8  6
 -1.024128829900e-02    15  3  9  5
  1.024128829900e-02    15  3  10  5
  1.024128829900e-02    15  3  11  6
  1.024128829900e-02    15  3  12  3
  1.024128829900e-02    15  3  13  4
  1.024128829900e-02    15  3  14  4
  1.228954595880e-02    15  3  15  3
  3.413762766334e-03    15  4  9  6
  3.413762766334e-03    15  4  10  6
  3.413762766334e-03    15  4  13  3
  3.413762766334e-03    15  4  14  3
  6.827525532669e-03    15  4  15  4
 -3.413762766334e-03    15  5  9  3
  3.413762766334e-03    15  5  10  3
 -3.413762766334e-03    15  5  13  6
  3.413762766334e-03    15  5  14  6
  6.827525532669e-03    15  5  15  5
  1.448336880862e-02    15  6  2  1
  8.193030639203e-03    15  6  8  3
  1.024128829900e-02    15  6  9  4
  1.024128829900e-02    15  6  10  4
  1.024128829900e-02    15  6  11  3
 -1.024128829900e-02    15  6  12  6
 -1.024128829900e-02    15  6  13  5
  1.024128829900e-02    15  6  14  5
  1.228954595880e-02    15  6  15  6
  1.448336880862e-02    15  7  3  1
  8.193030639203e-03    15  7  8  2
  1.024128829900e-02    15  7  11  2
  1.024128829900e-02    15  7  12  7
  1.228954595880e-02    15  7  15  7
  1.280161037375e-03    15  8  15  8
 -5.120644149502e-03    15  9  5  3
  5.120644149502e-03    15  9  6  4
 -5.120644149502e-03    15  9  12  10
  5.120644149502e-03    15  9  13  11
 -3.413762766334e-03    15  9  14  8
  6.827525532669e-03    15  9  15  9
  5.120644149502e-03    15  10  5  3
  5.120644149502e-03    15  10  6  4
 -5.120644149502e-03    15  10  12  9
 -3.413762766334e-03    15  10  13  8
  5.120644149502e-03    15  10  14  11
  6.827525532669e-03    15  10  15  10
  2.560322074751e-03    15  11  6  3
  2.560322074751e-03    15  11  7  2
  2.560322074751e-03    15  11  13  9
  2.560322074751e-03    15  11  14  10
  5.120644149502e-03    15  11  15  11
 -2.560322074751e-03    15  12  2  2
  2.560322074751e-03    15  12  3  3
 -2.560322074751e-03    15  12  6  6
  2.560322074751e-03    15  12  7  7
 -2.560322074751e-03    15  12  10  9
  2.560322074751e-03    15  12  14  13
  5.120644149502e-03    15  12  15  12
  5.120644149502e-03    15  13  4  3
 -5.120644149502e-03    15  13  6  5
  3.413762766334e-03    15  13  10  8
  5.120644149502e-03    15  13  11  9
  5.120644149502e-03    15  13  14  12
  6.827525532669e-03    15  13  15  13
  5.120644149502e-03    15  14  4  3
  5.120644149502e-03    15  14  6  5
  3.413762766334e-03    15  14  9  8
  5.120644149502e-03    15  14  11  10
  5.120644149502e-03    15  14  13  12
  6.827525532669e-03    15  14  15  14
 -1.280161037375e-03    15  15  8  8
  1.280161037375e-03    15  15  15  15
  7.241684404312e-03    16  1  4  3
 -7.241684404312e-03    16  1  6  5
  7.241684404312e-03    16  1  10  8
  7.241684404312e-03    16  1  11  9
  7.241684404312e-03    16  1  14  12
  7.241684404312e-03    16  1  15  13
  1.024128829900e-02    16  1  16  1
  3.413762766334e-03    16  2  8  4
  3.413762766334e-03    16  2  9  3
  3.413762766334e-03    16  2  10  3
  3.413762766334e-03    16  2  11  4
  3.413762766334e-03    16  2  12  5
  3.413762766334e-03    16  2  13  6
 -3.413762766334e-03    16  2  14  6
 -3.413762766334e-03    16  2  15  5
  6.827525532669e-03    16  2  16  2
  1.448336880862e-02    16  3  4  1
  1.024128829900e-02    16  3  9  2
  1.024128829900e-02    16  3  10  2
  1.024128829900e-02    16  3  13  7
  1.024128829900e-02    16  3  14  7
  1.228954595880e-02    16  3  16  3
  1.448336880862e-02    16  4  3  1
  1.024128829900e-02    16  4  8  2
  1.024128829900e-02    16  4  11  2
  1.024128829900e-02    16  4  12  7
  1.024128829900e-02    16  4  15  7
  1.228954595880e-02    16  4  16  4
 -1.448336880862e-02    16  5  6  1
  1.024128829900e-02    16  5  8  7
 -1.024128829900e-02    16  5  11  7
  1.024128829900e-02    16  5  12  2
 -1.024128829900e-02    16  5  15  2
  1.228954595880e-02    16  5  16  5
 -1.448336880862e-02    16  6  5  1
  1.024128829900e-02    16  6  9  7
 -1.024128829900e-02    16  6  10  7
  1.024128829900e-02    16  6  13  2
 -1.024128829900e-02    16  6  14  2
  1.228954595880e-02    16  6  16  6
  3.413762766334e-03    16  7  8  5
  3.413762766334e-03    16  7  9  6
 -3.413762766334e-03    16  7  10  6
 -3.413762766334e-03    16  7  11  5
  3.413762766334e-03    16  7  12  4
  3.413762766334e-03    16  7  13  3
  3.413762766334e-03    16  7  14  3
  3.413762766334e-03    16  7  15  4
  6.827525532669e-03    16  7  16  7
  5.120644149502e-03    16  8  4  2
  5.120644149502e-03    16  8  7  5
  7.241684404312e-03    16  8  10  1
  6.827525532669e-03    16  8  16  8
  5.120644149502e-03    16  9  3  2
  5.120644149502e-03    16  9  7  6
  7.241684404312e-03    16  9  11  1
  6.827525532669e-03    16  9  16  9
  5.120644149502e-03    16  10  3  2
 -5.120644149502e-03    16  10  7  6
  7.241684404312e-03    16  10  8  1
  6.827525532669e-03    16  10  16  10
  5.120644149502e-03    16  11  4  2
 -5.120644149502e-03    16  11  7  5
  7.241684404312e-03    16  11  9  1
  6.827525532669e-03    16  11  16  11
  5.120644149502e-03    16  12  5  2
  5.120644149502e-03    16  12  7  4
  7.241684404312e-03    16  12  14  1
  6.827525532669e-03    16  12  16  12
  5.120644149502e-03    16  13  6  2
  5.120644149502e-03    16  13  7  3
  7.241684404312e-03    16  13  15  1
  6.827525532669e-03    16  13  16  13
 -5.120644149502e-03    16  14  6  2
  5.120644149502e-03    16  14  7  3
  7.241684404312e-03    16  14  12  1
  6.827525532669e-03    16  14  16  14
 -5.120644149502e-03    16  15  5  2
  5.120644149502e-03    16  15  7  4
  7.241684404312e-03    16  15  13  1
  6.827525532669e-03    16  15  16  15
  1.280161037375e-03    16  16  16  16
  7.241684404312e-03    17  1  4  3
  7.241684404312e-03    17  1  6  5
  7.241684404312e-03    17  1  9  8
  7.241684404312e-03    17  1  11  10
  7.241684404312e-03    17  1  13  12
  7.241684404312e-03    17  1  15  14
  1.024128829900e-02    17  1  17  1
  3.413762766334e-03    17  2  8  4
  3.413762766334e-03    17  2  9  3
  3.413762766334e-03    17  2  10  3
  3.413762766334e-03    17  2  11  4
 -3.413762766334e-03    17  2  12  5
 -3.413762766334e-03    17  2  13  6
  3.413762766334e-03    17  2  14  6
  3.413762766334e-03    17  2  15  5
  6.827525532669e-03    17  2  17  2
  1.448336880862e-02    17  3  4  1
  1.024128829900e-02    17  3  9  2
  1.024128829900e-02    17  3  10  2
  1.024128829900e-02    17  3  13  7
  1.024128829900e-02    17  3  14  7
  1.024128829900e-02    17  3  16  3
  1.228954595880e-02    17  3  17  3
  1.448336880862e-02    17  4  3  1
  1.024128829900e-02    17  4  8  2
  1.024128829900e-02    17  4  11  2
  1.024128829900e-02    17  4  12  7
  1.024128829900e-02    17  4  15  7
  1.024128829900e-02    17  4  16  4
  1.228954595880e-02    17  4  17  4
  1.448336880862e-02    17  5  6  1
 -1.024128829900e-02    17  5  8  7
  1.024128829900e-02    17  5  11  7
 -1.024128829900e-02    17  5  12  2
  1.024128829900e-02    17  5  15  2
 -1.024128829900e-02    17  5  16  5
  1.228954595880e-02    17  5  17  5
  1.448336880862e-02    17  6  5  1
 -1.024128829900e-02    17  6  9  7
  1.024128829900e-02    17  6  10  7
 -1.024128829900e-02    17  6  13  2
  1.024128829900e-02    17  6  14  2
 -1.024128829900e-02    17  6  16  6
  1.228954595880e-02    17  6  17  6
 -3.413762766334e-03    17  7  8  5
 -3.413762766334e-03    17  7  9  6
  3.413762766334e-03    17  7  10  6
  3.413762766334e-03    17  7  11  5
  3.413762766334e-03    17  7  12  4
  3.413762766334e-03    17  7  13  3
  3.413762766334e-03    17  7  14  3
  3.413762766334e-03    17  7  15  4
  6.827525532669e-03    17  7  17  7
  5.120644149502e-03    17  8  4  2
 -5.120644149502e-03    17  8  7  5
  7.241684404312e-03    17  8  9  1
  5.120644149502e-03    17  8  16  11
  6.827525532669e-03    17  8  17  8
  5.120644149502e-03    17  9  3  2
 -5.120644149502e-03    17  9  7  6
  7.241684404312e-03    17  9  8  1
  5.120644149502e-03    17  9  16  10
  6.827525532669e-03    17  9  17  9
  5.120644149502e-03    17  10  3  2
  5.120644149502e-03    17  10  7  6
  7.241684404312e-03    17  10  11  1
  5.120644149502e-03    17  10  16  9
  6.827525532669e-03    17  10  17  10
  5.120644149502e-03    17  11  4  2
  5.120644149502e-03    17  11  7  5
  7.241684404312e-03    17  11  10  1
  5.120644149502e-03    17  11  16  8
  6.827525532669e-03    17  11  17  11
 -5.120644149502e-03    17  12  5  2
  5.120644149502e-03    17  12  7  4
  7.241684404312e-03    17  12  13  1
  5.120644149502e-03    17  12  16  15
  6.827525532669e-03    17  12  17  12
 -5.120644149502e-03    17  13  6  2
  5.120644149502e-03    17  13  7  3
  7.241684404312e-03    17  13  12  1
  5.120644149502e-03    17  13  16  14
  6.827525532669e-03    17  13  17  13
  5.120644149502e-03    17  14  6  2
  5.120644149502e-03    17  14  7  3
  7.241684404312e-03    17  14  15  1
  5.120644149502e-03    17  14  16  13
  6.827525532669e-03    17  14  17  14
  5.120644149502e-03    17  15  5  2
  5.120644149502e-03    17  15  7  4
  7.241684404312e-03    17  15  14  1
  5.120644149502e-03    17  15  16  12
  6.827525532669e-03    17  15  17  15
  2.560322074751e-03    17  16  3  3
  2.560322074751e-03    17  16  4  4
 -2.560322074751e-03    17  16  5  5
 -2.560322074751e-03    17  16  6  6
  2.560322074751e-03    17  16  10  9
  2.560322074751e-03    17  16  11  8
  2.560322074751e-03    17  16  14  13
  2.560322074751e-03    17  16  15  12
  5.120644149502e-03    17  16  17  16
  1.280161037375e-03    17  17  17  17
 -7.241684404312e-03    18  1  5  3
  7.241684404312e-03    18  1  6  4
 -7.241684404312e-03    18  1  12  10
  7.241684404312e-03    18  1  13  11
 -7.241684404312e-03    18  1  14  8
  7.241684404312e-03    18  1  15  9
  1.024128829900e-02    18  1  18  1
 -3.413762766334e-03    18  2  8  5
  3.413762766334e-03    18  2  9  6
  3.413762766334e-03    18  2  10  6
 -3.413762766334e-03    18  2  11  5
 -3.413762766334e-03    18  2  12  4
  3.413762766334e-03    18  2  13  3
 -3.413762766334e-03    18  2  14  3
  3.413762766334e-03    18  2  15  4
  6.827525532669e-03    18  2  18  2
 -1.448336880862e-02    18  3  5  1
  1.024128829900e-02    18  3  9  7
 -1.024128829900e-02    18  3  10  7
  1.024128829900e-02    18  3  13  2
 -1.024128829900e-02    18  3  14  2
  1.024128829900e-02    18  3  16  6
 -8.193030639203e-03    18  3  17  6
  1.228954595880e-02    18  3  18  3
  1.448336880862e-02    18  4  6  1
 -1.024128829900e-02    18  4  8  7
  1.024128829900e-02    18  4  11  7
 -1.024128829900e-02    18  4  12  2
  1.024128829900e-02    18  4  15  2
 -1.024128829900e-02    18  4  16  5
  8.193030639203e-03    18  4  17  5
  1.228954595880e-02    18  4  18  4
 -1.448336880862e-02    18  5  3  1
 -1.024128829900e-02    18  5  8  2
 -1.024128829900e-02    18  5  11  2
 -1.024128829900e-02    18  5  12  7
 -1.024128829900e-02    18  5  15  7
 -1.024128829900e-02    18  5  16  4
 -8.193030639203e-03    18  5  17  4
  1.228954595880e-02    18  5  18  5
  1.448336880862e-02    18  6  4  1
  1.024128829900e-02    18  6  9  2
  1.024128829900e-02    18  6  10  2
  1.024128829900e-02    18  6  13  7
  1.024128829900e-02    18  6  14  7
  1.024128829900e-02    18  6  16  3
  8.193030639203e-03    18  6  17  3
  1.228954595880e-02    18  6  18  6
 -3.413762766334e-03    18  7  8  4
  3.413762766334e-03    18  7  9  3
 -3.413762766334e-03    18  7  10  3
  3.413762766334e-03    18  7  11  4
 -3.413762766334e-03    18  7  12  5
  3.413762766334e-03    18  7  13  6
  3.413762766334e-03    18  7  14  6
 -3.413762766334e-03    18  7  15  5
  6.827525532669e-03    18  7  18  7
 -5.120644149502e-03    18  8  5  2
 -5.120644149502e-03    18  8  7  4
 -7.241684404312e-03    18  8  14  1
 -5.120644149502e-03    18  8  16  12
 -3.413762766334e-03    18  8  17  15
  6.827525532669e-03    18  8  18  8
  5.120644149502e-03    18  9  6  2
  5.120644149502e-03    18  9  7  3
  7.241684404312e-03    18  9  15  1
  5.120644149502e-03    18  9  16  13
  3.413762766334e-03    18  9  17  14
  6.827525532669e-03    18  9  18  9
  5.120644149502e-03    18  10  6  2
 -5.120644149502e-03    18  10  7  3
 -7.241684404312e-03    18  10  12  1
 -5.120644149502e-03    18  10  16  14
 -3.413762766334e-03    18  10  17  13
  6.827525532669e-03    18  10  18  10
 -5.120644149502e-03    18  11  5  2
  5.120644149502e-03    18  11  7  4
  7.241684404312e-03    18  11  13  1
  5.120644149502e-03    18  11  16  15
  3.413762766334e-03    18  11  17  12
  6.827525532669e-03    18  11  18  11
 -5.120644149502e-03    18  12  4  2
 -5.120644149502e-03    18  12  7  5
 -7.241684404312e-03    18  12  10  1
 -5.120644149502e-03    18  12  16  8
 -3.413762766334e-03    18  12  17  11
  6.827525532669e-03    18  12  18  12
  5.120644149502e-03    18  13  3  2
  5.120644149502e-03    18  13  7  6
  7.241684404312e-03    18  13  11  1
  5.120644149502e-03    18  13  16  9
  3.413762766334e-03    18  13  17  10
  6.827525532669e-03    18  13  18  13
 -5.120644149502e-03    18  14  3  2
  5.120644149502e-03    18  14  7  6
 -7.241684404312e-03    18  14  8  1
 -5.120644149502e-03    18  14  16  10
 -3.413762766334e-03    18  14  17  9
  6.827525532669e-03    18  14  18  14
  5.120644149502e-03    18  15  4  2
 -5.120644149502e-03    18  15  7  5
  7.241684404312e-03    18  15  9  1
  5.120644149502e-03    18  15  16  11
  3.413762766334e-03    18  15  17  8
  6.827525532669e-03    18  15  18  15
 -2.560322074751e-03    18  16  5  4
  2.560322074751e-03    18  16  6  3
 -2.560322074751e-03    18  16  12  8
  2.560322074751e-03    18  16  13  9
 -2.560322074751e-03    18  16  14  10
  2.560322074751e-03    18  16  15  11
  5.120644149502e-03    18  16  18  16
  1.280161037375e-03    18  17  18  17
 -1.280161037375e-03    18  18  17  17
  1.280161037375e-03    18  18  18  18
  7.241684404312e-03    19  1  5  3
  7.241684404312e-03    19  1  6  4
 -7.241684404312e-03    19  1  12  9
 -7.241684404312e-03    19  1  13  8
  7.241684404312e-03    19  1  14  11
  7.241684404312e-03    19  1  15  10
  1.024128829900e-02    19  1  19  1
  3.413762766334e-03    19  2  8  5
  3.413762766334e-03    19  2  9  6
  3.413762766334e-03    19  2  10  6
  3.413762766334e-03    19  2  11  5
 -3.413762766334e-03    19  2  12  4
 -3.413762766334e-03    19  2  13  3
  3.413762766334e-03    19  2  14  3
  3.413762766334e-03    19  2  15  4
  6.827525532669e-03    19  2  19  2
  1.448336880862e-02    19  3  5  1
 -1.024128829900e-02    19  3  9  7
  1.024128829900e-02    19  3  10  7
 -1.024128829900e-02    19  3  13  2
  1.024128829900e-02    19  3  14  2
 -8.193030639203e-03    19  3  16  6
  1.024128829900e-02    19  3  17  6
 -1.024128829900e-02    19  3  18  3
  1.228954595880e-02    19  3  19  3
  1.448336880862e-02    19  4  6  1
 -1.024128829900e-02    19  4  8  7
  1.024128829900e-02    19  4  11  7
 -1.024128829900e-02    19  4  12  2
  1.024128829900e-02    19  4  15  2
 -8.193030639203e-03    19  4  16  5
  1.024128829900e-02    19  4  17  5
  1.024128829900e-02    19  4  18  4
  1.228954595880e-02    19  4  19  4
  1.448336880862e-02    19  5  3  1
  1.024128829900e-02    19  5  8  2
  1.024128829900e-02    19  5  11  2
  1.024128829900e-02    19  5  12  7
  1.024128829900e-02    19  5  15  7
  8.193030639203e-03    19  5  16  4
  1.024128829900e-02    19  5  17  4
 -1.024128829900e-02    19  5  18  5
  1.228954595880e-02    19  5  19  5
  1.448336880862e-02    19  6  4  1
  1.024128829900e-02    19  6  9  2
  1.024128829900e-02    19  6  10  2
  1.024128829900e-02    19  6  13  7
  1.024128829900e-02    19  6  14  7
  8.193030639203e-03    19  6  16  3
  1.024128829900e-02    19  6  17  3
  1.024128829900e-02    19  6  18  6
  1.228954595880e-02    19  6  19  6
 -3.413762766334e-03    19  7  8  4
 -3.413762766334e-03    19  7  9  3
  3.413762766334e-03    19  7  10  3
  3.413762766334e-03    19  7  11  4
  3.413762766334e-03    19  7  12  5
  3.413762766334e-03    19  7  13  6
  3.413762766334e-03    19  7  14  6
  3.413762766334e-03    19  7  15  5
  6.827525532669e-03    19  7  19  7
  5.120644149502e-03    19  8  5  2
 -5.120644149502e-03    19  8  7  4
 -7.241684404312e-03    19  8  13  1
 -3.413762766334e-03    19  8  16  15
 -5.120644149502e-03    19  8  17  12
 -5.120644149502e-03    19  8  18  11
  6.827525532669e-03    19  8  19  8
  5.120644149502e-03    19  9  6  2
 -5.120644149502e-03    19  9  7  3
 -7.241684404312e-03    19  9  12  1
 -3.413762766334e-03    19  9  16  14
 -5.120644149502e-03    19  9  17  13
  5.120644149502e-03    19  9  18  10
  6.827525532669e-03    19  9  19  9
  5.120644149502e-03    19  10  6  2
  5.120644149502e-03    19  10  7  3
  7.241684404312e-03    19  10  15  1
  3.413762766334e-03    19  10  16  13
  5.120644149502e-03    19  10  17  14
  5.120644149502e-03    19  10  18  9
  6.827525532669e-03    19  10  19  10
  5.120644149502e-03    19  11  5  2
  5.120644149502e-03    19  11  7  4
  7.241684404312e-03    19  11  14  1
  3.413762766334e-03    19  11  16  12
  5.120644149502e-03    19  11  17  15
 -5.120644149502e-03    19  11  18  8
  6.827525532669e-03    19  11  19  11
 -5.120644149502e-03    19  12  4  2
  5.120644149502e-03    19  12  7  5
 -7.241684404312e-03    19  12  9  1
 -3.413762766334e-03    19  12  16  11
 -5.120644149502e-03    19  12  17  8
 -5.120644149502e-03    19  12  18  15
  6.827525532669e-03    19  12  19  12
 -5.120644149502e-03    19  13  3  2
  5.120644149502e-03    19  13  7  6
 -7.241684404312e-03    19  13  8  1
 -3.413762766334e-03    19  13  16  10
 -5.120644149502e-03    19  13  17  9
  5.120644149502e-03    19  13  18  14
  6.827525532669e-03    19  13  19  13
  5.120644149502e-03    19  14  3  2
  5.120644149502e-03    19  14  7  6
  7.241684404312e-03    19  14  11  1
  3.413762766334e-03    19  14  16  9
  5.120644149502e-03    19  14  17  10
  5.120644149502e-03    19  14  18  13
  6.827525532669e-03    19  14  19  14
  5.120644149502e-03    19  15  4  2
  5.120644149502e-03    19  15  7  5
  7.241684404312e-03    19  15  10  1
  3.413762766334e-03    19  15  16  8
  5.120644149502e-03    19  15  17  11
 -5.120644149502e-03    19  15  18  12
  6.827525532669e-03    19  15  19  15
  1.280161037375e-03    19  16  19  16
  2.560322074751e-03    19  17  5  4
  2.560322074751e-03    19  17  6  3
 -2.560322074751e-03    19  17  12  8
 -2.560322074751e-03    19  17  13  9
  2.560322074751e-03    19  17  14  10
  2.560322074751e-03    19  17  15  11
  5.120644149502e-03    19  17  19  17
 -2.560322074751e-03    19  18  3  3
  2.560322074751e-03    19  18  4  4
 -2.560322074751e-03    19  18  5  5
  2.560322074751e-03    19  18  6  6
  2.560322074751e-03    19  18  10  9
 -2.560322074751e-03    19  18  11  8
  2.560322074751e-03    19  18  14  13
 -2.560322074751e-03    19  18  15  12
  5.120644149502e-03    19  18  19  18
 -1.280161037375e-03    19  19  16  16