 &FCI NORB=10 ,NELEC=10 ,MS2=0,
  ORBSYM=1,1,1,1,1,1,1,1,1,1,
  ISYM=1,
 &END
  8.662544523512e-01    1  1  1  1
 -9.013112867034e-04    2  1  1  1
  1.439741939514e-05    2  1  2  1
  1.510287752675e-01    2  2  1  1
 -9.014076199560e-04    2  2  2  1
  8.661380832356e-01    2  2  2  2
 -8.941531353594e-04    3  1  1  1
 -3.323582042791e-07    3  1  2  1
 -6.770526635846e-05    3  1  2  2
  1.430797019699e-05    3  1  3  1
 -5.419216052424e-06    3  2  1  1
 -8.667789335159e-08    3  2  2  1
  1.352794945214e-05    3  2  2  2
 -8.681166999400e-08    3  2  3  1
  1.797237856828e-09    3  2  3  2
  1.509243768035e-01    3  3  1  1
 -6.838791859426e-05    3  3  2  1
  7.564422151075e-02    3  3  2  2
 -8.955198717008e-04    3  3  3  1
  1.352027560345e-05    3  3  3  2
  8.638691127000e-01    3  3  3  3
 -5.056648809988e-05    4  1  1  1
  3.439500792895e-07    4  1  2  1
  3.072104266174e-05    4  1  2  2
  7.305496777079e-09    4  1  3  1
 -6.445841767333e-10    4  1  3  2
 -3.860601610509e-06    4  1  3  3
  3.004367077824e-08    4  1  4  1
  1.727962701726e-04    4  2  1  1
  5.573380201714e-06    4  2  2  1
  2.027215302152e-03    4  2  2  2
 -2.549454530744e-07    4  2  3  1
 -3.705318178505e-08    4  2  3  2
  2.190035567929e-05    4  2  3  3
 -1.569878460062e-06    4  2  4  1
  2.857692414699e-04    4  2  4  2
 -1.891349904714e-07    4  3  1  1
 -9.179808329709e-10    4  3  2  1
 -2.432737156628e-07    4  3  2  2
 -4.140465563682e-09    4  3  3  1
  4.916001943020e-11    4  3  3  2
  6.926216937396e-07    4  3  3  3
 -2.117104259150e-10    4  3  4  1
  1.839606920883e-08    4  3  4  2
  4.402874357739e-12    4  3  4  3
  8.991846933434e-02    4  4  1  1
 -1.599098902206e-04    4  4  2  1
  2.210885746809e-01    4  4  2  2
 -1.960748646183e-05    4  4  3  1
  2.362776526488e-06    4  4  3  2
  5.642450203900e-02    4  4  3  3
 -4.884640038178e-05    4  4  4  1
  2.169003734833e-03    4  4  4  2
  6.650774308368e-07    4  4  4  3
  8.158156696113e-01    4  4  4  4
 -1.213767876569e-02    5  1  1  1
 -3.028350051820e-05    5  1  2  1
 -9.748585813301e-04    5  1  2  2
  1.462306702831e-04    5  1  3  1
 -2.811953614200e-07    5  1  3  2
 -2.730073760498e-03    5  1  3  3
 -8.687635563923e-07    5  1  4  1
 -4.488342337950e-06    5  1  4  2
 -1.472445744356e-08    5  1  4  3
 -2.390922911419e-04    5  1  4  4
  8.578359847050e-03    5  1  5  1
 -1.292399205213e-04    5  2  1  1
 -1.953015685730e-06    5  2  2  1
  2.362715000066e-04    5  2  2  2
  2.053478302516e-07    5  2  3  1
  1.953055479669e-08    5  2  3  2
  4.192386239213e-05    5  2  3  3
 -2.144896323464e-08    5  2  4  1
 -9.303838528276e-07    5  2  4  2
  2.137719386153e-10    5  2  4  3
  4.027619612411e-05    5  2  4  4
 -3.361092857999e-05    5  2  5  1
  6.979469977302e-07    5  2  5  2
  2.050995991755e-03    5  3  1  1
 -4.528227476879e-06    5  3  2  1
  1.093836888440e-04    5  3  2  2
 -4.038616358431e-05    5  3  3  1
  3.817854078723e-07    5  3  3  2
  2.527539127425e-03    5  3  3  3
 -2.199863332862e-07    5  3  4  1
  3.116111817893e-07    5  3  4  2
  1.803374522190e-08    5  3  4  3
  3.715071134114e-05    5  3  4  4
  2.307550100809e-04    5  3  5  1
 -8.796220576050e-07    5  3  5  2
  3.156527606395e-04    5  3  5  3
 -3.756937262938e-06    5  4  1  1
 -2.661762080937e-08    5  4  2  1
 -5.825586697403e-06    5  4  2  2
  7.704924196895e-09    5  4  3  1
  1.778727820176e-10    5  4  3  2
  2.184900126542e-06    5  4  3  3
 -4.430869421114e-09    5  4  4  1
  3.541256733709e-07    5  4  4  2
  4.850667411402e-11    5  4  4  3
  1.172403562028e-05    5  4  4  4
 -1.553711966442e-06    5  4  5  1
  1.761459429143e-08    5  4  5  2
 -3.055500238262e-08    5  4  5  3
  1.551336869635e-09    5  4  5  4
  4.259245434731e-01    5  5  1  1
 -5.381946330424e-04    5  5  2  1
  1.133871499831e-01    5  5  2  2
  8.677059879045e-04    5  5  3  1
 -5.861159533332e-06    5  5  3  2
  2.257537058666e-01    5  5  3  3
 -2.728821628535e-05    5  5  4  1
  7.699763267919e-05    5  5  4  2
 -2.229425750797e-07    5  5  4  3
  7.507661505943e-02    5  5  4  4
 -1.213799417986e-02    5  5  5  1
  2.362619637523e-04    5  5  5  2
  2.511043869542e-03    5  5  5  3
  1.217325907307e-05    5  5  5  4
  8.662482514440e-01    5  5  5  5
  2.546051806292e-03    6  1  1  1
 -4.049736011466e-05    6  1  2  1
  2.069511327137e-03    6  1  2  2
  5.480279727352e-06    6  1  3  1
  1.388266552647e-07    6  1  3  2
  2.292031333222e-04    6  1  3  3
 -1.528417677533e-06    6  1  4  1
  1.629596452992e-05    6  1  4  2
  4.131149810725e-09    6  1  4  3
  2.214645723389e-04    6  1  4  4
  2.310212149839e-04    6  1  5  1
  3.789610268725e-06    6  1  5  2
  1.827054041328e-05    6  1  5  3
  1.254499392359e-07    6  1  5  4
  2.069661640246e-03    6  1  5  5
  3.172512611949e-04    6  1  6  1
 -2.734085061618e-03    6  2  1  1
  1.471001916066e-04    6  2  2  1
 -1.213369271747e-02    6  2  2  2
  5.428028602670e-06    6  2  3  1
 -1.711242560985e-06    6  2  3  2
 -2.444747059978e-04    6  2  3  3
  9.057695082516e-07    6  2  4  1
  2.225929001939e-04    6  2  4  2
 -1.422413141780e-08    6  2  4  3
 -2.602938071807e-03    6  2  4  4
  1.094811294898e-04    6  2  5  1
 -3.361919231822e-05    6  2  5  2
 -5.202367953422e-06    6  2  5  3
 -2.444061530326e-07    6  2  5  4
 -9.739401776720e-04    6  2  5  5
  2.310450489536e-04    6  2  6  1
  8.576945140034e-03    6  2  6  2
  3.120465146929e-05    6  3  1  1
  7.444977460304e-08    6  3  2  1
 -3.040489426161e-05    6  3  2  2
  3.812574828938e-07    6  3  3  1
 -4.989413891000e-09    6  3  3  2
 -5.631290651652e-05    6  3  3  3
  1.578049705365e-09    6  3  4  1
 -2.153925211803e-07    6  3  4  2
 -2.147689431509e-10    6  3  4  3
 -4.307061756361e-06    6  3  4  4
  1.053408321593e-06    6  3  5  1
 -2.415237505273e-08    6  3  5  2
 -1.687543311182e-06    6  3  5  3
 -6.648762375041e-10    6  3  5  4
  3.126812815257e-05    6  3  5  5
 -1.682602544088e-06    6  3  6  1
 -9.406605985349e-07    6  3  6  2
  3.462878741496e-08    6  3  6  3
 -1.422778486055e-04    6  4  1  1
 -1.182533183689e-06    6  4  2  1
  8.496796845745e-04    6  4  2  2
  2.518066353979e-07    6  4  3  1
  8.632736521483e-09    6  4  3  2
 -1.514519984460e-05    6  4  3  3
  3.482389546059e-07    6  4  4  1
 -3.754340589219e-05    6  4  4  2
 -4.141538555659e-09    6  4  4  3
 -7.807475343150e-04    6  4  4  4
  4.871467343435e-06    6  4  5  1
  2.036555000647e-07    6  4  5  2
 -2.647708326739e-07    6  4  5  3
 -7.901510909678e-08    6  4  5  4
 -5.596094820675e-05    6  4  5  5
  5.207984781175e-06    6  4  6  1
  1.324472855914e-04    6  4  6  2
  5.147149076154e-09    6  4  6  3
  1.266255139092e-05    6  4  6  4
  8.678390361458e-04    6  5  1  1
  2.608291454548e-06    6  5  2  1
 -5.383563582728e-04    6  5  2  2
 -1.228424343487e-06    6  5  3  1
 -2.986818130768e-08    6  5  3  2
 -1.667832271945e-04    6  5  3  3
  6.699889878393e-08    6  5  4  1
 -4.029025368739e-06    6  5  4  2
 -9.335942169748e-10    6  5  4  3
 -6.626295363593e-05    6  5  4  4
  1.470999345894e-04    6  5  5  1
 -1.952814711022e-06    6  5  5  2
  5.507718477197e-06    6  5  5  3
 -7.856447400933e-08    6  5  5  4
 -9.016930754800e-04    6  5  5  5
 -4.050820095378e-05    6  5  6  1
 -3.029791061930e-05    6  5  6  2
  3.804910763315e-07    6  5  6  3
 -3.557348929249e-07    6  5  6  4
  1.440168490008e-05    6  5  6  5
  2.259834964269e-01    6  6  1  1
  8.679362607872e-04    6  6  2  1
  4.258948396356e-01    6  6  2  2
 -1.655171142885e-04    6  6  3  1
 -3.973097810626e-06    6  6  3  2
  9.073043575975e-02    6  6  3  3
  2.975231624146e-05    6  6  4  1
  1.776432918131e-03    6  6  4  2
 -1.969261426661e-07    6  6  4  3
  1.487454236369e-01    6  6  4  4
 -2.735980139326e-03    6  6  5  1
 -1.292736189688e-04    6  6  5  2
  2.257441860590e-04    6  6  5  3
 -5.213095378729e-06    6  6  5  4
  1.510337327823e-01    6  6  5  5
  2.546093898917e-03    6  6  6  1
 -1.212726477661e-02    6  6  6  2
 -5.632915781434e-05    6  6  6  3
 -7.825172411840e-04    6  6  6  4
 -9.016930776827e-04    6  6  6  5
  8.662482487954e-01    6  6  6  6
  2.096104617002e-04    7  1  1  1
 -3.084253525301e-09    7  1  2  1
  1.519671747522e-05    7  1  2  2
 -1.744669076352e-06    7  1  3  1
  4.810658273099e-09    7  1  3  2
 -1.368259747737e-04    7  1  3  3
 -4.835657153412e-09    7  1  4  1
  5.592903740367e-08    7  1  4  2
  2.255444697992e-10    7  1  4  3
  4.398341053701e-06    7  1  4  4
 -3.036280432979e-05    7  1  5  1
 -2.631099477895e-08    7  1  5  2
  3.367215571806e-06    7  1  5  3
 -7.694668420584e-10    7  1  5  4
 -1.245119718777e-04    7  1  5  5
 -8.134109003000e-07    7  1  6  1
 -1.161382885072e-06    7  1  6  2
 -2.077882486665e-08    7  1  6  3
 -5.434033352937e-08    7  1  6  4
  1.926338607570e-07    7  1  6  5
  3.656713139585e-05    7  1  6  6
  6.058275492428e-07    7  1  7  1
  9.577050727548e-07    7  2  1  1
  1.806936595699e-08    7  2  2  1
 -2.920808341347e-06    7  2  2  2
  6.146955905476e-09    7  2  3  1
 -2.354521931358e-10    7  2  3  2
  8.949032773897e-07    7  2  3  3
  1.367404682508e-10    7  2  4  1
  7.123266743878e-09    7  2  4  2
 -3.506984512509e-12    7  2  4  3
 -5.114869247093e-07    7  2  4  4
  6.457219933418e-08    7  2  5  1
 -4.087770214032e-09    7  2  5  2
 -2.844229294843e-08    7  2  5  3
 -3.820232079749e-11    7  2  5  4
  9.822995393042e-07    7  2  5  5
 -2.921373021491e-08    7  2  6  1
  3.560820476969e-07    7  2  6  2
  4.347758899981e-10    7  2  6  3
 -1.787567941482e-09    7  2  6  4
  6.349421712667e-09    7  2  6  5
  7.025383382135e-07    7  2  6  6
 -4.060497798001e-09    7  2  7  1
  8.226676378768e-11    7  2  7  2
 -6.553980778029e-04    7  3  1  1
  1.128281468975e-06    7  3  2  1
 -5.386841026951e-05    7  3  2  2
 -3.360405639714e-05    7  3  3  1
  2.458746711841e-07    7  3  3  2
 -8.603872422614e-03    7  3  3  3
  5.749966467599e-08    7  3  4  1
 -1.716259272080e-07    7  3  4  2
  1.058134830907e-08    7  3  4  3
 -9.869945044401e-06    7  3  4  4
  9.462169549899e-05    7  3  5  1
 -1.092680620165e-06    7  3  5  2
  2.361921723982e-04    7  3  5  3
 -5.286560935625e-08    7  3  5  4
 -2.104163577057e-03    7  3  5  5
 -4.272613046335e-06    7  3  6  1
  2.133842975867e-06    7  3  6  2
 -1.178545708044e-06    7  3  6  3
  1.220891052679e-07    7  3  6  4
  4.639263940185e-06    7  3  6  5
 -1.145346035514e-04    7  3  6  6
 -3.202302748544e-05    7  3  7  1
  3.718669794914e-07    7  3  7  2
  7.912544901947e-03    7  3  7  3
  3.344626636376e-08    7  4  1  1
  1.959791460159e-10    7  4  2  1
  4.770974063413e-08    7  4  2  2
  2.985218626020e-10    7  4  3  1
 -3.698390159373e-12    7  4  3  2
  3.481060711340e-08    7  4  3  3
  4.475110175312e-11    7  4  4  1
 -3.871820888854e-09    7  4  4  2
 -1.430522222841e-07    7  4  4  4
  3.291326993906e-09    7  4  5  1
 -4.593148258935e-11    7  4  5  2
 -1.350045352018e-09    7  4  5  3
 -1.026693274682e-11    7  4  5  4
  3.772740283198e-08    7  4  5  5
 -8.749893808530e-10    7  4  6  1
  3.011665027093e-09    7  4  6  2
  1.608574849272e-11    7  4  6  3
  8.711789417109e-10    7  4  6  4
  1.987023863942e-10    7  4  6  5
  3.772761210375e-08    7  4  6  6
 -1.966140143636e-10    7  4  7  1
  2.366757382661e-12    7  4  7  2
  1.807635117725e-08    7  4  7  3
 -4.726865760648e-04    7  5  1  1
  1.018801266761e-06    7  5  2  1
 -2.728942592900e-05    7  5  2  2
  2.293319493911e-06    7  5  3  1
 -1.418568242910e-08    7  5  3  2
  8.838200278059e-04    7  5  3  3
  4.970150411587e-08    7  5  4  1
 -7.729182535565e-08    7  5  4  2
 -6.320473260035e-10    7  5  4  3
 -8.965451474182e-06    7  5  4  4
 -2.862338254044e-05    7  5  5  1
  4.772927127913e-09    7  5  5  2
 -3.648949036329e-05    7  5  5  3
 -1.963491753445e-09    7  5  5  4
 -7.825322185975e-04    7  5  5  5
 -4.085703134310e-06    7  5  6  1
  1.236541393521e-06    7  5  6  2
  6.246017078877e-08    7  5  6  3
  6.393275866134e-08    7  5  6  4
 -3.557332199368e-07    7  5  6  5
 -5.596234218264e-05    7  5  6  6
 -1.765804335906e-06    7  5  7  1
  1.811140700590e-08    7  5  7  2
  1.419227294162e-04    7  5  7  3
  8.711769007213e-10    7  5  7  4
  1.266277760335e-05    7  5  7  5
 -5.497292066478e-06    7  6  1  1
 -1.546054961377e-08    7  6  2  1
  6.479791856366e-06    7  6  2  2
 -2.606711192703e-08    7  6  3  1
  4.141412943269e-10    7  6  3  2
 -4.561193137820e-06    7  6  3  3
 -3.547963356945e-10    7  6  4  1
  4.520793332049e-08    7  6  4  2
  1.470807028855e-11    7  6  4  3
  9.433992791977e-07    7  6  4  4
 -2.509617090530e-07    7  6  5  1
  5.061006717003e-09    7  6  5  2
  1.226786384838e-07    7  6  5  3
  1.457478929344e-10    7  6  5  4
 -5.213140709009e-06    7  6  5  5
  3.459237190160e-07    7  6  6  1
  1.730674081306e-07    7  6  6  2
 -4.448347937649e-09    7  6  6  3
 -1.963424421360e-09    7  6  6  4
 -7.856562954466e-08    7  6  6  5
  1.217344495200e-05    7  6  6  6
  1.761560293017e-08    7  6  7  1
 -2.334508898719e-10    7  6  7  2
 -1.624648879851e-06    7  6  7  3
 -1.026693111832e-11    7  6  7  4
 -7.901604273984e-08    7  6  7  5
  1.551368070698e-09    7  6  7  6
  1.120745839227e-01    7  7  1  1
 -3.403535591711e-05    7  7  2  1
  6.443826619248e-02    7  7  2  2
 -5.105319156160e-04    7  7  3  1
  6.890390297332e-06    7  7  3  2
  4.117927604746e-01    7  7  3  3
 -1.989799975486e-06    7  7  4  1
  1.257526116337e-05    7  7  4  2
  3.483986439576e-07    7  7  4  3
  4.994176809428e-02    7  7  4  4
 -9.382296845511e-04    7  7  5  1
  1.735689120231e-05    7  7  5  2
  1.961243568763e-03    7  7  5  3
  9.433874166860e-07    7  7  5  4
  1.487457904158e-01    7  7  5  5
  1.086236607492e-04    7  7  6  1
 -1.445676505255e-04    7  7  6  2
 -2.906293747723e-05    7  7  6  3
 -8.965107071646e-06    7  7  6  4
 -6.626332643601e-05    7  7  6  5
  7.507670863961e-02    7  7  6  6
  2.040713594334e-04    7  7  7  1
 -2.806615497019e-06    7  7  7  2
 -1.038575251271e-02    7  7  7  3
 -1.430507255400e-07    7  7  7  4
 -7.807431630031e-04    7  7  7  5
  1.172406471819e-05    7  7  7  6
  8.158164704724e-01    7  7  7  7
  2.346566050426e-04    8  1  1  1
 -1.941524262894e-06    8  1  2  1
 -1.297658664599e-04    8  1  2  2
 -8.058211513618e-09    8  1  3  1
  5.575953838343e-09    8  1  3  2
  1.772811943900e-05    8  1  3  3
 -8.645886787474e-08    8  1  4  1
 -2.576796392172e-07    8  1  4  2
  3.250925025377e-10    8  1  4  3
  1.235310974613e-04    8  1  4  4
  4.864265384251e-06    8  1  5  1
  1.569913963762e-07    8  1  5  2
  1.059477013156e-06    8  1  5  3
  8.094002164770e-09    8  1  5  4
  1.293017505546e-04    8  1  5  5
  7.551246529033e-06    8  1  6  1
 -8.878021855298e-06    8  1  6  2
 -6.132379343950e-09    8  1  6  3
 -2.675810023445e-07    8  1  6  4
 -3.164230279337e-07    8  1  6  5
 -1.827380990075e-04    8  1  6  6
  1.784810480297e-08    8  1  7  1
 -1.165321622365e-09    8  1  7  2
 -2.712487426097e-07    8  1  7  3
 -6.923260181925e-11    8  1  7  4
 -2.389063457383e-07    8  1  7  5
  1.371043695344e-09    8  1  7  6
  9.088860183391e-06    8  1  7  7
  6.930499205462e-07    8  1  8  1
 -9.563709655395e-04    8  2  1  1
 -3.048605279563e-05    8  2  2  1
 -1.193927820136e-02    8  2  2  2
  1.381772369975e-06    8  2  3  1
  1.912119977260e-07    8  2  3  2
 -1.422617205630e-04    8  2  3  3
  1.886854704930e-06    8  2  4  1
 -7.432356230536e-04    8  2  4  2
 -2.441237097609e-08    8  2  4  3
 -9.824092575910e-03    8  2  4  4
  2.454498894483e-05    8  2  5  1
  4.938364785615e-06    8  2  5  2
 -1.660939797337e-06    8  2  5  3
 -4.573518272212e-07    8  2  5  4
 -4.395848386106e-04    8  2  5  5
 -9.994959563551e-05    8  2  6  1
 -1.267358718342e-03    8  2  6  2
  1.294174677595e-06    8  2  6  3
  5.423160253436e-05    8  2  6  4
  2.438648385872e-05    8  2  6  5
 -1.029637578491e-02    8  2  6  6
 -3.024310092608e-07    8  2  7  1
 -3.629535777234e-08    8  2  7  2
  8.873878671326e-07    8  2  7  3
  5.184015956932e-09    8  2  7  4
  4.103877956530e-07    8  2  7  5
 -2.711492186682e-07    8  2  7  6
 -9.017265197442e-05    8  2  7  7
 -3.356871432211e-05    8  2  8  1
  8.546893241618e-03    8  2  8  2
  1.009414964663e-06    8  3  1  1
  6.998421551133e-09    8  3  2  1
  7.549225008389e-07    8  3  2  2
  1.983990420518e-08    8  3  3  1
 -2.628703763168e-10    8  3  3  2
 -3.219262739950e-06    8  3  3  3
  2.840951830564e-10    8  3  4  1
  2.799746402590e-09    8  3  4  2
 -1.261874567907e-11    8  3  4  3
 -1.627461379135e-06    8  3  4  4
  6.998746596757e-08    8  3  5  1
 -1.579974807820e-09    8  3  5  2
 -8.635009759609e-08    8  3  5  3
 -6.947596521730e-11    8  3  5  4
  1.169634856457e-06    8  3  5  5
 -1.968796099964e-08    8  3  6  1
  1.213622032652e-07    8  3  6  2
  1.019124249221e-09    8  3  6  3
  3.091962413488e-09    8  3  6  4
  4.357388985543e-09    8  3  6  5
  1.169636868328e-06    8  3  6  6
 -1.099876085262e-09    8  3  7  1
  2.275403226037e-11    8  3  7  2
 -5.255114379836e-08    8  3  7  3
  1.128247602652e-12    8  3  7  4
  3.091976830130e-09    8  3  7  5
 -6.947671061856e-11    8  3  7  6
 -1.627470140914e-06    8  3  7  7
 -4.495180337142e-09    8  3  8  1
  3.918393513494e-07    8  3  8  2
  9.493866219028e-11    8  3  8  3
 -2.570772599104e-04    8  4  1  1
  2.146824710279e-05    8  4  2  1
 -8.722025315466e-03    8  4  2  2
  3.577191353784e-07    8  4  3  1
 -2.619165394395e-07    8  4  3  2
 -2.501115592443e-05    8  4  3  3
  7.217710128689e-06    8  4  4  1
 -7.955420088089e-04    8  4  4  2
 -8.561674128002e-08    8  4  4  3
 -1.038575703622e-02    8  4  4  4
  5.897000057073e-06    8  4  5  1
 -5.008430706195e-06    8  4  5  2
 -4.832190777297e-07    8  4  5  3
 -1.624629095838e-06    8  4  5  4
 -1.145348566188e-04    8  4  5  5
 -1.856818473393e-05    8  4  6  1
  4.921939389352e-04    8  4  6  2
  2.505065375897e-07    8  4  6  3
  1.419211405916e-04    8  4  6  4
  4.639236920273e-06    8  4  6  5
 -2.104154683931e-03    8  4  6  6
 -7.952566648503e-08    8  4  7  1
  5.526876752609e-08    8  4  7  2
  3.005452690448e-07    8  4  7  3
  1.807638846445e-08    8  4  7  4
  1.220911845963e-07    8  4  7  5
 -5.286609063630e-08    8  4  7  6
 -9.870253652754e-06    8  4  7  7
  5.837392865909e-06    8  4  8  1
 -1.288608084563e-03    8  4  8  2
 -5.255062528745e-08    8  4  8  3
  7.912438402363e-03    8  4  8  4
  2.168230659560e-05    8  5  1  1
  1.785398120862e-07    8  5  2  1
  2.186771411374e-05    8  5  2  2
 -3.766438809923e-08    8  5  3  1
 -1.410003248397e-09    8  5  3  2
 -1.009458409982e-05    8  5  3  3
  7.542459441322e-09    8  5  4  1
  3.883168137404e-08    8  5  4  2
 -7.529504445180e-11    8  5  4  3
 -2.906270446077e-05    8  5  4  4
  7.581040636120e-06    8  5  5  1
 -9.669445818764e-08    8  5  5  2
  1.676044156596e-07    8  5  5  3
 -4.448278104519e-09    8  5  5  4
 -5.632900246300e-05    8  5  5  5
 -5.992911863462e-07    8  5  6  1
  2.187536159250e-06    8  5  6  2
  3.066141100768e-09    8  5  6  3
  6.245978278980e-08    8  5  6  4
  3.804901033417e-07    8  5  6  5
  3.126811098255e-05    8  5  6  6
  3.976805595777e-09    8  5  7  1
  2.974027526922e-10    8  5  7  2
  2.505073055160e-07    8  5  7  3
  1.608577254954e-11    8  5  7  4
  5.147558098905e-09    8  5  7  5
 -6.648850916421e-10    8  5  7  6
 -4.307069113726e-06    8  5  7  7
 -9.679049489758e-08    8  5  8  1
  7.610869080479e-06    8  5  8  2
  1.019124413307e-09    8  5  8  3
 -1.178532071793e-06    8  5  8  4
  3.462866869786e-08    8  5  8  5
  5.916561772133e-04    8  6  1  1
  1.294508767615e-06    8  6  2  1
 -4.914008426755e-03    8  6  2  2
 -1.090437597906e-06    8  6  3  1
 -3.187633023454e-09    8  6  3  2
  6.133903328099e-05    8  6  3  3
 -5.298890664591e-07    8  6  4  1
  1.828095054911e-05    8  6  4  2
  6.449242397095e-09    8  6  4  3
  1.961229603635e-03    8  6  4  4
 -2.151227017617e-05    8  6  5  1
 -1.311305985174e-07    8  6  5  2
  1.104393111103e-06    8  6  5  3
  1.226772934063e-07    8  6  5  4
  2.257428193498e-04    8  6  5  5
 -4.212603371002e-05    8  6  6  1
 -8.215107087449e-04    8  6  6  2
  1.676051554969e-07    8  6  6  3
 -3.648899401043e-05    8  6  6  4
  5.507720833072e-06    8  6  6  5
  2.511030860484e-03    8  6  6  6
  2.344440287218e-07    8  6  7  1
  8.865917806466e-10    8  6  7  2
 -4.832179339300e-07    8  6  7  3
 -1.350049250945e-09    8  6  7  4
 -2.647745197572e-07    8  6  7  5
 -3.055549608506e-08    8  6  7  6
  3.715043571263e-05    8  6  7  7
  7.575812166285e-06    8  6  8  1
 -8.250643788805e-04    8  6  8  2
 -8.635017677643e-08    8  6  8  3
  2.361899511233e-04    8  6  8  4
 -1.687540849528e-06    8  6  8  5
  3.156519999639e-04    8  6  8  6
 -1.777553895583e-07    8  7  1  1
 -1.483223596502e-09    8  7  2  1
 -1.371847773537e-07    8  7  2  2
 -1.430391471639e-09    8  7  3  1
  2.347885145048e-11    8  7  3  2
 -1.805528235254e-07    8  7  3  3
 -5.980098721489e-11    8  7  4  1
 -6.093446940045e-10    8  7  4  2
  1.103737075705e-12    8  7  4  3
  3.484010491872e-07    8  7  4  4
 -1.573402673536e-08    8  7  5  1
  3.370276810386e-10    8  7  5  2
  6.449300781037e-09    8  7  5  3
  1.470809702110e-11    8  7  5  4
 -1.969271950869e-07    8  7  5  5
  4.185409755985e-09    8  7  6  1
 -2.556553804096e-08    8  7  6  2
 -7.529587475959e-11    8  7  6  3
 -6.320519664350e-10    8  7  6  4
 -9.336063637865e-10    8  7  6  5
 -2.229453549073e-07    8  7  6  6
  9.357300888441e-10    8  7  7  1
 -1.246839504623e-11    8  7  7  2
 -8.561758694078e-08    8  7  7  3
 -4.141578432281e-09    8  7  7  5
  4.850725290280e-11    8  7  7  6
  6.650783616968e-07    8  7  7  7
  9.455468354091e-10    8  7  8  1
 -8.235562306042e-08    8  7  8  2
 -1.261891275423e-11    8  7  8  3
  1.058136724613e-08    8  7  8  4
 -2.147715922893e-10    8  7  8  5
  1.803397760525e-08    8  7  8  6
  4.402949337447e-12    8  7  8  7
  1.133263779714e-01    8  8  1  1
 -5.372196467379e-04    8  8  2  1
  4.252807921818e-01    8  8  2  2
 -3.443494193586e-05    8  8  3  1
  7.193077497302e-06    8  8  3  2
  6.483789851644e-02    8  8  3  3
  2.395527605584e-05    8  8  4  1
 -4.982236500761e-03    8  8  4  2
 -1.805524064124e-07    8  8  4  3
  4.117905516363e-01    8  8  4  4
 -4.503484668245e-04    8  8  5  1
  1.299320183393e-04    8  8  5  2
  6.133956338348e-05    8  8  5  3
 -4.561161071190e-06    8  8  5  4
  9.073041887907e-02    8  8  5  5
  5.977893803128e-04    8  8  6  1
 -1.036532544852e-02    8  8  6  2
 -1.009460647042e-05    8  8  6  3
  8.838108443705e-04    8  8  6  4
 -1.667830754334e-04    8  8  6  5
  2.257536045219e-01    8  8  6  6
  7.761681424852e-06    8  8  7  1
 -1.538555519635e-06    8  8  7  2
 -2.501087056509e-05    8  8  7  3
  3.481094150198e-08    8  8  7  4
 -1.514572934303e-05    8  8  7  5
  2.184933970967e-06    8  8  7  6
  5.642454836495e-02    8  8  7  7
  2.346944996772e-04    8  8  8  1
 -1.205629733236e-02    8  8  8  2
 -3.219262829627e-06    8  8  8  3
 -8.603879520857e-03    8  8  8  4
 -5.631276504168e-05    8  8  8  5
  2.527534995520e-03    8  8  8  6
  6.926301485861e-07    8  8  8  7
  8.638681362558e-01    8  8  8  8
  2.544194795160e-03    9  1  1  1
  5.493298689941e-06    9  1  2  1
  2.293535551226e-04    9  1  2  2
 -4.028588947306e-05    9  1  3  1
  1.387679581740e-07    9  1  3  2
  2.065093761166e-03    9  1  3  3
  1.539683211599e-07    9  1  4  1
  9.542352056145e-07    9  1  4  2
  6.627998592448e-09    9  1  4  3
  6.147896579562e-05    9  1  4  4
 -8.257700743400e-04    9  1  5  1
 -1.252104905898e-07    9  1  5  2
  2.150039511232e-05    9  1  5  3
 -2.546342374701e-09    9  1  5  4
 -4.906278549655e-03    9  1  5  5
 -4.216555752251e-05    9  1  6  1
 -2.165961206517e-05    9  1  6  2
 -5.993505240331e-07    9  1  6  3
 -9.833442207659e-07    9  1  6  4
  1.279479267961e-06    9  1  6  5
  5.986161413261e-04    9  1  6  6
  6.852356357213e-06    9  1  7  1
 -1.758983757462e-08    9  1  7  2
 -8.840572777328e-05    9  1  7  3
 -8.475117423410e-10    9  1  7  4
  1.351855708234e-06    9  1  7  5
  7.469008511231e-08    9  1  7  6
  5.716215549814e-04    9  1  7  7
 -8.714460641415e-07    9  1  8  1
 -5.196319928370e-06    9  1  8  2
 -3.202070528821e-08    9  1  8  3
 -1.297172153052e-06    9  1  8  4
  4.423606383557e-09    9  1  8  5
  4.298082181334e-06    9  1  8  6
  4.105839591071e-09    9  1  8  7
  1.115002282056e-04    9  1  8  8
  3.171772314923e-04    9  1  9  1
  3.126817752713e-05    9  2  1  1
  3.826482060465e-07    9  2  2  1
 -5.668333607957e-05    9  2  2  2
  7.426585684579e-08    9  2  3  1
 -4.986612221553e-09    9  2  3  2
 -3.054158894228e-05    9  2  3  3
  2.678723898913e-09    9  2  4  1
  1.829016047807e-07    9  2  4  2
 -7.722125186987e-11    9  2  4  3
 -9.779023056369e-06    9  2  4  4
  2.203179333251e-06    9  2  5  1
 -9.727149042439e-08    9  2  5  2
  6.089924938673e-09    9  2  5  3
 -1.261667163764e-09    9  2  5  4
  2.172862501037e-05    9  2  5  5
 -6.028952266422e-07    9  2  6  1
  7.622626051366e-06    9  2  6  2
  8.608472757133e-09    9  2  6  3
 -3.846200627975e-08    9  2  6  4
  1.796629067358e-07    9  2  6  5
  2.172862910243e-05    9  2  6  6
 -4.971234450245e-09    9  2  7  1
  9.225878882429e-10    9  2  7  2
  1.140990995773e-06    9  2  7  3
  1.072285943835e-11    9  2  7  4
 -3.846222124080e-08    9  2  7  5
 -1.261687440031e-09    9  2  7  6
 -9.779088345523e-06    9  2  7  7
 -2.413519436258e-08    9  2  8  1
 -9.574491639014e-07    9  2  8  2
  4.931041912612e-10    9  2  8  3
  1.140984229377e-06    9  2  8  4
  8.608448103421e-09    9  2  8  5
  6.090536015420e-09    9  2  8  6
 -7.722225167037e-11    9  2  8  7
 -3.054156086463e-05    9  2  8  8
 -1.691735120403e-06    9  2  9  1
  3.487961573409e-08    9  2  9  2
 -2.699887792680e-03    9  3  1  1
  5.418821787884e-06    9  3  2  1
 -2.374351247345e-04    9  3  2  2
  1.469742800762e-04    9  3  3  1
 -1.717584337276e-06    9  3  3  2
 -1.205631405638e-02    9  3  3  3
  2.670694300460e-07    9  3  4  1
 -5.393262339761e-07    9  3  4  2
 -8.235452095749e-08    9  3  4  3
 -9.017384749097e-05    9  3  4  4
  5.526776870554e-04    9  3  5  1
 -5.700808405860e-06    9  3  5  2
 -8.250649564860e-04    9  3  5  3
 -2.711460725310e-07    9  3  5  4
 -1.029641304116e-02    9  3  5  5
 -2.150484711207e-05    9  3  6  1
  7.504018728953e-06    9  3  6  2
  7.610876447405e-06    9  3  6  3
  4.103821553803e-07    9  3  6  4
  2.438655382861e-05    9  3  6  5
 -4.395889599603e-04    9  3  6  6
 -7.624345521346e-06    9  3  7  1
  1.055853903552e-07    9  3  7  2
 -1.288619630682e-03    9  3  7  3
  5.183995320181e-09    9  3  7  4
  5.423208134162e-05    9  3  7  5
 -4.573562595465e-07    9  3  7  6
 -9.824160182474e-03    9  3  7  7
 -1.275697086700e-06    9  3  8  1
  2.853691499134e-06    9  3  8  2
  3.918387919674e-07    9  3  8  3
  8.873918999656e-07    9  3  8  4
  1.294175250469e-06    9  3  8  5
 -1.660941338595e-06    9  3  8  6
 -2.441256351014e-08    9  3  8  7
 -1.422636363631e-04    9  3  8  8
  2.313900411496e-04    9  3  9  1
 -9.574444506594e-07    9  3  9  2
  8.546908798147e-03    9  3  9  3
  1.091050339391e-06    9  4  1  1
  3.867306666411e-09    9  4  2  1
  1.177746362143e-06    9  4  2  2
  3.391577378698e-09    9  4  3  1
 -7.152333677266e-11    9  4  3  2
 -1.538533920797e-06    9  4  3  3
  9.155583019725e-10    9  4  4  1
 -8.040249168028e-08    9  4  4  2
 -1.246822673805e-11    9  4  4  3
 -2.806606142058e-06    9  4  4  4
  1.107259707561e-07    9  4  5  1
 -1.414885902002e-09    9  4  5  2
  8.865498225879e-10    9  4  5  3
 -2.334472271753e-10    9  4  5  4
  7.025302997792e-07    9  4  5  5
 -1.783652341472e-08    9  4  6  1
  6.148361373330e-08    9  4  6  2
  2.973990881677e-10    9  4  6  3
  1.811119058110e-08    9  4  6  4
  6.349324311950e-09    9  4  6  5
  9.822919675574e-07    9  4  6  6
 -2.408369396788e-10    9  4  7  1
  9.466464576096e-12    9  4  7  2
  5.526829708320e-08    9  4  7  3
  2.366757806789e-12    9  4  7  4
 -1.787550950568e-09    9  4  7  5
 -3.820236699060e-11    9  4  7  6
 -5.114821998072e-07    9  4  7  7
 -1.380077956728e-09    9  4  8  1
  1.055843318807e-07    9  4  8  2
  2.275376480539e-11    9  4  8  3
  3.718624489088e-07    9  4  8  4
  4.347696398149e-10    9  4  8  5
 -2.844197270279e-08    9  4  8  6
 -3.506991937766e-12    9  4  8  7
  8.948983770289e-07    9  4  8  8
 -7.859327753196e-08    9  4  9  1
  9.225740378067e-10    9  4  9  2
 -3.629461298628e-08    9  4  9  3
  8.226509047323e-11    9  4  9  4
 -1.038451011580e-02    9  5  1  1
  2.453790776806e-05    9  5  2  1
 -4.503314656583e-04    9  5  2  2
  6.159078965895e-05    9  5  3  1
 -5.283756415827e-07    9  5  3  2
 -1.036533748562e-02    9  5  3  3
  1.181118609587e-06    9  5  4  1
 -1.404724516216e-06    9  5  4  2
 -2.556524611601e-08    9  5  4  3
 -1.445672722383e-04    9  5  4  4
 -1.265779763290e-03    9  5  5  1
  4.884326985568e-06    9  5  5  2
 -8.215126609497e-04    9  5  5  3
  1.730650751004e-07    9  5  5  4
 -1.212726926002e-02    9  5  5  5
 -1.005743636184e-04    9  5  6  1
  2.476493618991e-05    9  5  6  2
  2.187543165284e-06    9  5  6  3
  1.236520150657e-06    9  5  6  4
 -3.029790604198e-05    9  5  6  5
 -9.739405938205e-04    9  5  6  6
 -7.854426784776e-06    9  5  7  1
  6.148463733145e-08    9  5  7  2
  4.921971432326e-04    9  5  7  3
  3.011671186780e-09    9  5  7  4
  1.324492244373e-04    9  5  7  5
 -2.444103273744e-07    9  5  7  6
 -2.602959746580e-03    9  5  7  7
 -5.705964697438e-06    9  5  8  1
  7.503983447817e-06    9  5  8  2
  1.213622817165e-07    9  5  8  3
  2.133838714753e-06    9  5  8  4
 -9.406584299218e-07    9  5  8  5
 -5.202350208094e-06    9  5  8  6
 -1.422433339144e-08    9  5  8  7
 -2.444747558668e-04    9  5  8  8
 -8.259790879061e-04    9  5  9  1