&FCI NORB=6 ,NELEC=6 ,MS2=0,
ORBSYM= 1, 1, 1, 1, 1, 1,
ISYM=1,
&END
4.0 1 1 1 1
4.0 2 2 2 2
4.0 3 3 3 3
4.0 4 4 4 4
4.0 5 5 5 5
4.0 6 6 6 6
-1. 1 2 0 0
-1. 2 3 0 0
-1. 3 4 0 0
-1. 4 5 0 0
-1. 5 6 0 0
-1. 6 1 0 0
