 &FCI NORB=10 ,NELEC=13 ,MS2=1,
  ORBSYM=1,5,1,5,1,3,2,5,6,7,
  ISYM=1,
 &END
  2.323853404968e+00    1  1  1  1
  1.845821160864e+00    2  1  2  1
  2.330063510427e+00    2  2  1  1
  2.336315257458e+00    2  2  2  2
 -2.168710101527e-01    3  1  1  1
 -2.180022445841e-01    3  1  2  2
  4.249318822609e-02    3  1  3  1
 -2.294286507261e-01    3  2  2  1
  4.231525669265e-02    3  2  3  2
  8.676557276808e-01    3  3  1  1
  8.679568467313e-01    3  3  2  2
  4.692508774946e-03    3  3  3  1
  8.455876432336e-01    3  3  3  3
 -1.980497493620e-01    4  1  2  1
  3.002160582040e-02    4  1  3  2
  3.625551885348e-02    4  1  4  1
 -2.090170570479e-01    4  2  1  1
 -2.101595319549e-01    4  2  2  2
  2.961979026848e-02    4  2  3  1
 -2.884806670607e-02    4  2  3  3
  3.691399272830e-02    4  2  4  2
  1.794614145819e-01    4  3  2  1
 -1.106980842232e-02    4  3  3  2
 -4.301730129631e-03    4  3  4  1
  5.866136888605e-02    4  3  4  3
  7.171302979370e-01    4  4  1  1
  7.173442355626e-01    4  4  2  2
 -1.748943832688e-02    4  4  3  1
  5.493733214285e-01    4  4  3  3
 -4.979848911899e-03    4  4  4  2
  5.804961497195e-01    4  4  4  4
  8.911963555816e-02    5  1  1  1
  8.964759734806e-02    5  1  2  2
 -3.712889480779e-03    5  1  3  1
  3.778062029034e-02    5  1  3  3
 -2.236211689182e-02    5  1  4  2
 -7.322103049423e-03    5  1  4  4
  2.436609326184e-02    5  1  5  1
  7.111528819616e-02    5  2  2  1
 -4.810396188626e-03    5  2  3  2
 -2.159684695925e-02    5  2  4  1
 -2.643574862678e-03    5  2  4  3
  2.266664985073e-02    5  2  5  2
  9.757668408550e-02    5  3  1  1
  9.754058805060e-02    5  3  2  2
  1.056342156823e-02    5  3  3  1
  1.503310860156e-01    5  3  3  3
 -1.046337774996e-02    5  3  4  2
  2.868570425126e-03    5  3  4  4
  2.035402870182e-02    5  3  5  1
  7.447422476770e-02    5  3  5  3
 -2.942241427052e-01    5  4  2  1
  1.994423598965e-02    5  4  3  2
 -4.138647640651e-03    5  4  4  1
 -1.035403065313e-01    5  4  4  3
  1.915152281549e-02    5  4  5  2
  2.344571060759e-01    5  4  5  4
  7.578182126081e-01    5  5  1  1
  7.579067991610e-01    5  5  2  2
 -1.164658186931e-02    5  5  3  1
  6.108174025372e-01    5  5  3  3
 -7.402377942610e-03    5  5  4  2
  5.869299509186e-01    5  5  4  4
 -1.378999998282e-04    5  5  5  1
  3.774531122606e-02    5  5  5  3
  6.161526355552e-01    5  5  5  5
  1.865920722886e-02    6  1  6  1
  1.771713210993e-02    6  2  6  2
  2.197262476467e-02    6  3  6  1
  1.061143813876e-01    6  3  6  3
  1.420421050346e-02    6  4  6  2
  4.649568311991e-02    6  4  6  4
 -5.629498595300e-03    6  5  6  1
 -1.103986029842e-02    6  5  6  3
  2.662466926497e-02    6  5  6  5
  7.613270581918e-01    6  6  1  1
  7.614592420492e-01    6  6  2  2
 -2.253522524125e-03    6  6  3  1
  6.841287398178e-01    6  6  3  3
 -1.391103213493e-02    6  6  4  2
  5.405458299652e-01    6  6  4  4
  1.485092100425e-02    6  6  5  1
  6.977288786558e-02    6  6  5  3
  5.613383485520e-01    6  6  5  5
  6.428277614108e-01    6  6  6  6
  1.865920722886e-02    7  1  7  1
  1.771713210993e-02    7  2  7  2
  2.197262476467e-02    7  3  7  1
  1.061143813876e-01    7  3  7  3
  1.420421050346e-02    7  4  7  2
  4.649568311991e-02    7  4  7  4
 -5.629498595300e-03    7  5  7  1
 -1.103986029842e-02    7  5  7  3
  2.662466926497e-02    7  5  7  5
  2.513936455270e-02    7  6  7  6
  7.613270581918e-01    7  7  1  1
  7.614592420492e-01    7  7  2  2
 -2.253522524125e-03    7  7  3  1
  6.841287398178e-01    7  7  3  3
 -1.391103213493e-02    7  7  4  2
  5.405458299652e-01    7  7  4  4
  1.485092100425e-02    7  7  5  1
  6.977288786558e-02    7  7  5  3
  5.613383485520e-01    7  7  5  5
  5.925490323054e-01    7  7  6  6
  6.428277614108e-01    7  7  7  7
 -1.828767954335e-01    8  1  2  1
  4.457272274017e-02    8  1  3  2
  1.261410045831e-02    8  1  4  1
 -1.264619197526e-02    8  1  4  3
  1.812593151429e-02    8  1  5  2
  3.669677500132e-02    8  1  5  4
  7.197957828415e-02    8  1  8  1
 -1.597896429397e-01    8  2  1  1
 -1.605875175498e-01    8  2  2  2
  4.557467066711e-02    8  2  3  1
  3.480689685465e-02    8  2  3  3
  1.208500325715e-02    8  2  4  2
 -2.510920763043e-02    8  2  4  4
  2.000839325081e-02    8  2  5  1
  2.719908928092e-02    8  2  5  3
 -1.378967170335e-02    8  2  5  5
  1.094573972589e-02    8  2  6  6
  1.094573972589e-02    8  2  7  7
  7.386760657706e-02    8  2  8  2
  3.030002832979e-01    8  3  2  1
 -9.110702063897e-03    8  3  3  2
 -2.055853081942e-02    8  3  4  1
  6.394387622292e-02    8  3  4  3
  1.885634035061e-02    8  3  5  2
 -7.640988642802e-02    8  3  5  4
  1.041547393985e-02    8  3  8  1
  1.524492920672e-01    8  3  8  3
 -4.091548789716e-04    8  4  1  1
 -2.543603518520e-04    8  4  2  2
  4.597660552772e-03    8  4  3  1
  4.249300947810e-02    8  4  3  3
 -7.297571870304e-03    8  4  4  2
 -3.025997592553e-02    8  4  4  4
  1.231232640161e-02    8  4  5  1
  2.259019526166e-02    8  4  5  3
 -3.181562011092e-02    8  4  5  5
  2.330987397006e-02    8  4  6  6
  2.330987397006e-02    8  4  7  7
  1.586139325565e-02    8  4  8  2
  3.265404715531e-02    8  4  8  4
  2.623781216095e-01    8  5  2  1
 -1.161382213037e-02    8  5  3  2
 -7.487583961595e-03    8  5  4  1
  5.795931149877e-02    8  5  4  3
  1.133471359899e-03    8  5  5  2
 -1.215422783522e-01    8  5  5  4
 -9.612572694054e-03    8  5  8  1
  9.765909926614e-02    8  5  8  3
  1.065384096636e-01    8  5  8  5
  1.263007259844e-02    8  6  6  2
  2.342417033865e-02    8  6  6  4
  3.976264822529e-02    8  6  8  6
  1.263007259844e-02    8  7  7  2
  2.342417033865e-02    8  7  7  4
  3.976264822529e-02    8  7  8  7
  1.094512252322e+00    8  8  1  1
  1.095048039608e+00    8  8  2  2
 -1.219111775212e-02    8  8  3  1
  8.613737041457e-01    8  8  3  3
 -4.227355069853e-02    8  8  4  2
  6.117992620674e-01    8  8  4  4
  4.150344122941e-02    8  8  5  1
  1.427965485512e-01    8  8  5  3
  6.793618893995e-01    8  8  5  5
  7.140840907286e-01    8  8  6  6
  7.140840907286e-01    8  8  7  7
  2.231183909546e-02    8  8  8  2
  1.840817328442e-02    8  8  8  4
  9.690740958060e-01    8  8  8  8
  2.551889102421e-02    9  1  7  2
  1.954939098310e-02    9  1  7  4
  1.653288122266e-02    9  1  8  7
  3.686253507802e-02    9  1  9  1
  2.646296488219e-02    9  2  7  1
  2.814716755377e-02    9  2  7  3
 -8.322870766150e-03    9  2  7  5
  3.769646990797e-02    9  2  9  2
  1.628132347483e-02    9  3  7  2
  4.136265576279e-02    9  3  7  4
  3.865309930694e-02    9  3  8  7
  2.184733603015e-02    9  3  9  1
  4.843084035472e-02    9  3  9  3
  2.024549928084e-02    9  4  7  1
  6.861477460907e-02    9  4  7  3
 -3.482035295329e-02    9  4  7  5
  2.736683220576e-02    9  4  9  2
  7.676265672962e-02    9  4  9  4
 -8.808171996456e-03    9  5  7  2
 -3.575709575056e-02    9  5  7  4
 -1.941528771046e-03    9  5  8  7
 -1.268224671568e-02    9  5  9  1
 -2.178011996137e-02    9  5  9  3
  3.698635842694e-02    9  5  9  5
  2.036448872754e-02    9  6  9  6
  3.594609555639e-01    9  7  2  1
 -1.593488062067e-02    9  7  3  2
 -7.211440466668e-03    9  7  4  1
  1.047949981358e-01    9  7  4  3
 -2.131682334527e-03    9  7  5  2
 -1.739849562345e-01    9  7  5  4
 -1.427196173723e-02    9  7  8  1
  1.375570450515e-01    9  7  8  3
  1.137079700997e-01    9  7  8  5
  2.235804172909e-01    9  7  9  7
  1.602794845737e-02    9  8  7  1
  6.456129329735e-02    9  8  7  3
  2.892263101223e-03    9  8  7  5
  2.037492425394e-02    9  8  9  2
  3.348998192961e-02    9  8  9  4
  5.433003748845e-02    9  8  9  8
  9.007845465044e-01    9  9  1  1
  9.010468492126e-01    9  9  2  2
 -1.413613008898e-02    9  9  3  1
  6.947217292156e-01    9  9  3  3
 -1.824326279568e-02    9  9  4  2
  5.977090208811e-01    9  9  4  4
  1.129617236860e-02    9  9  5  1
  5.548565851217e-02    9  9  5  3
  6.150998089646e-01    9  9  5  5
  6.217937152621e-01    9  9  6  6
  6.701082165427e-01    9  9  7  7
 -3.232042283514e-03    9  9  8  2
  9.027035373882e-03    9  9  8  4
  7.674656784423e-01    9  9  8  8
  7.397494605391e-01    9  9  9  9
  2.551889102421e-02    10  1  6  2
  1.954939098310e-02    10  1  6  4
  1.653288122266e-02    10  1  8  6
  3.686253507802e-02    10  1  10  1
  2.646296488219e-02    10  2  6  1
  2.814716755377e-02    10  2  6  3
 -8.322870766150e-03    10  2  6  5
  3.769646990797e-02    10  2  10  2
  1.628132347483e-02    10  3  6  2
  4.136265576279e-02    10  3  6  4
  3.865309930694e-02    10  3  8  6
  2.184733603015e-02    10  3  10  1
  4.843084035472e-02    10  3  10  3
  2.024549928084e-02    10  4  6  1
  6.861477460907e-02    10  4  6  3
 -3.482035295329e-02    10  4  6  5
  2.736683220576e-02    10  4  10  2
  7.676265672962e-02    10  4  10  4
 -8.808171996456e-03    10  5  6  2
 -3.575709575056e-02    10  5  6  4
 -1.941528771046e-03    10  5  8  6
 -1.268224671568e-02    10  5  10  1
 -2.178011996137e-02    10  5  10  3
  3.698635842694e-02    10  5  10  5
  3.594609555639e-01    10  6  2  1
 -1.593488062067e-02    10  6  3  2
 -7.211440466668e-03    10  6  4  1
  1.047949981358e-01    10  6  4  3
 -2.131682334526e-03    10  6  5  2
 -1.739849562345e-01    10  6  5  4
 -1.427196173723e-02    10  6  8  1
  1.375570450515e-01    10  6  8  3
  1.137079700997e-01    10  6  8  5
  1.828514398358e-01    10  6  9  7
  2.235804172909e-01    10  6  10  6
  2.036448872754e-02    10  7  9  6
  2.036448872754e-02    10  7  10  7
  1.602794845737e-02    10  8  6  1
  6.456129329735e-02    10  8  6  3
  2.892263101223e-03    10  8  6  5
  2.037492425394e-02    10  8  10  2
  3.348998192961e-02    10  8  10  4
  5.433003748845e-02    10  8  10  8
  2.415725064033e-02    10  9  7  6
  2.955786142429e-02    10  9  10  9
  9.007845465044e-01    10  10  1  1
  9.010468492126e-01    10  10  2  2
 -1.413613008898e-02    10  10  3  1
  6.947217292156e-01    10  10  3  3
 -1.824326279568e-02    10  10  4  2
  5.977090208811e-01    10  10  4  4
  1.129617236860e-02    10  10  5  1
  5.548565851217e-02    10  10  5  3
  6.150998089646e-01    10  10  5  5
  6.701082165427e-01    10  10  6  6
  6.217937152621e-01    10  10  7  7
 -3.232042283514e-03    10  10  8  2
  9.027035373882e-03    10  10  8  4
  7.674656784423e-01    10  10  8  8
  6.806337376906e-01    10  10  9  9
  7.397494605391e-01    10  10  10  10
 -2.783496701807e+01    1  1  0  0
 -2.784418776082e+01    2  2  0  0
  5.098153488286e-01    3  1  0  0
 -1.013131478728e+01    3  3  0  0
  5.676244994676e-01    4  2  0  0
 -8.001005862621e+00    4  4  0  0
 -3.099834129560e-01    5  1  0  0
 -9.441292587563e-01    5  3  0  0
 -8.282892663066e+00    5  5  0  0
 -8.577174064052e+00    6  6  0  0
 -8.577174064052e+00    7  7  0  0
  2.473560847973e-01    8  2  0  0
 -1.272396036248e-01    8  4  0  0
 -9.203888821253e+00    8  8  0  0
 -8.804934697934e+00    9  9  0  0
 -8.804934697934e+00    10  10  0  0
     23.701721512870   0  0  0  0
